 Entering Gaussian System, Link 0=g09
 Input=/home/himanshu/git/molecular-modeling/a1/q1/r3/iodo_methane.com
 Output=/home/himanshu/git/molecular-modeling/a1/q1/r3/iodo_methane.log
 Initial command:
 /home/himanshu/work/Gview_and_Gaussian/g09/l1.exe "/home/himanshu/work/Gview_and_Gaussian/g09/scratch/Gau-61434.inp" -scrdir="/home/himanshu/work/Gview_and_Gaussian/g09/scratch/"
 Entering Link 1 = /home/himanshu/work/Gview_and_Gaussian/g09/l1.exe PID=     61436.
  
 Copyright (c) 1988,1990,1992,1993,1995,1998,2003,2009,2013,
            Gaussian, Inc.  All Rights Reserved.
  
 This is part of the Gaussian(R) 09 program.  It is based on
 the Gaussian(R) 03 system (copyright 2003, Gaussian, Inc.),
 the Gaussian(R) 98 system (copyright 1998, Gaussian, Inc.),
 the Gaussian(R) 94 system (copyright 1995, Gaussian, Inc.),
 the Gaussian 92(TM) system (copyright 1992, Gaussian, Inc.),
 the Gaussian 90(TM) system (copyright 1990, Gaussian, Inc.),
 the Gaussian 88(TM) system (copyright 1988, Gaussian, Inc.),
 the Gaussian 86(TM) system (copyright 1986, Carnegie Mellon
 University), and the Gaussian 82(TM) system (copyright 1983,
 Carnegie Mellon University). Gaussian is a federally registered
 trademark of Gaussian, Inc.
  
 This software contains proprietary and confidential information,
 including trade secrets, belonging to Gaussian, Inc.
  
 This software is provided under written license and may be
 used, copied, transmitted, or stored only in accord with that
 written license.
  
 The following legend is applicable only to US Government
 contracts under FAR:
  
                    RESTRICTED RIGHTS LEGEND
  
 Use, reproduction and disclosure by the US Government is
 subject to restrictions as set forth in subparagraphs (a)
 and (c) of the Commercial Computer Software - Restricted
 Rights clause in FAR 52.227-19.
  
 Gaussian, Inc.
 340 Quinnipiac St., Bldg. 40, Wallingford CT 06492
  
  
 ---------------------------------------------------------------
 Warning -- This program may not be used in any manner that
 competes with the business of Gaussian, Inc. or will provide
 assistance to any competitor of Gaussian, Inc.  The licensee
 of this program is prohibited from giving any competitor of
 Gaussian, Inc. access to this program.  By using this program,
 the user acknowledges that Gaussian, Inc. is engaged in the
 business of creating and licensing software in the field of
 computational chemistry and represents and warrants to the
 licensee that it is not a competitor of Gaussian, Inc. and that
 it will not use this program in any manner prohibited above.
 ---------------------------------------------------------------
  

 Cite this work as:
 Gaussian 09, Revision D.01,
 M. J. Frisch, G. W. Trucks, H. B. Schlegel, G. E. Scuseria, 
 M. A. Robb, J. R. Cheeseman, G. Scalmani, V. Barone, B. Mennucci, 
 G. A. Petersson, H. Nakatsuji, M. Caricato, X. Li, H. P. Hratchian, 
 A. F. Izmaylov, J. Bloino, G. Zheng, J. L. Sonnenberg, M. Hada, 
 M. Ehara, K. Toyota, R. Fukuda, J. Hasegawa, M. Ishida, T. Nakajima, 
 Y. Honda, O. Kitao, H. Nakai, T. Vreven, J. A. Montgomery, Jr., 
 J. E. Peralta, F. Ogliaro, M. Bearpark, J. J. Heyd, E. Brothers, 
 K. N. Kudin, V. N. Staroverov, T. Keith, R. Kobayashi, J. Normand, 
 K. Raghavachari, A. Rendell, J. C. Burant, S. S. Iyengar, J. Tomasi, 
 M. Cossi, N. Rega, J. M. Millam, M. Klene, J. E. Knox, J. B. Cross, 
 V. Bakken, C. Adamo, J. Jaramillo, R. Gomperts, R. E. Stratmann, 
 O. Yazyev, A. J. Austin, R. Cammi, C. Pomelli, J. W. Ochterski, 
 R. L. Martin, K. Morokuma, V. G. Zakrzewski, G. A. Voth, 
 P. Salvador, J. J. Dannenberg, S. Dapprich, A. D. Daniels, 
 O. Farkas, J. B. Foresman, J. V. Ortiz, J. Cioslowski, 
 and D. J. Fox, Gaussian, Inc., Wallingford CT, 2013.
 
 ******************************************
 Gaussian 09:  AM64L-G09RevD.01 24-Apr-2013
                17-Feb-2025 
 ******************************************
 %chk=iodo_methane.chk
 -----------------------------
 # hf/sto-3g geom=connectivity
 -----------------------------
 1/38=1,57=2/1;
 2/12=2,17=6,18=5,40=1/2;
 3/6=3,11=9,16=1,25=1,30=1/1,2,3;
 4//1;
 5/5=2,38=5/2;
 6/7=2,8=2,9=2,10=2,28=1/1;
 99/5=1,9=1/99;
 -------------------
 Title Card Required
 -------------------
 Symbolic Z-matrix:
 Charge =  0 Multiplicity = 1
 C                     0.        0.       -1.78615 
 H                     0.        1.01836  -2.1578 
 H                     0.88192  -0.50918  -2.1578 
 H                    -0.88192  -0.50918  -2.1578 
 I                     0.        0.        0.32434 
 
                          Input orientation:                          
 ---------------------------------------------------------------------
 Center     Atomic      Atomic             Coordinates (Angstroms)
 Number     Number       Type             X           Y           Z
 ---------------------------------------------------------------------
      1          6           0        0.000000    0.000000   -1.786148
      2          1           0        0.000000    1.018358   -2.157798
      3          1           0        0.881924   -0.509179   -2.157798
      4          1           0       -0.881924   -0.509179   -2.157798
      5         53           0        0.000000    0.000000    0.324345
 ---------------------------------------------------------------------
                    Distance matrix (angstroms):
                    1          2          3          4          5
     1  C    0.000000
     2  H    1.084056   0.000000
     3  H    1.084056   1.763848   0.000000
     4  H    1.084056   1.763848   1.763848   0.000000
     5  I    2.110493   2.682925   2.682925   2.682925   0.000000
 Stoichiometry    CH3I
 Framework group  C3V[C3(CI),3SGV(H)]
 Deg. of freedom     3
 Full point group                 C3V     NOp   6
 Largest Abelian subgroup         CS      NOp   2
 Largest concise Abelian subgroup CS      NOp   2
                         Standard orientation:                         
 ---------------------------------------------------------------------
 Center     Atomic      Atomic             Coordinates (Angstroms)
 Number     Number       Type             X           Y           Z
 ---------------------------------------------------------------------
      1          6           0        0.000000    0.000000   -1.786148
      2          1           0        0.000000    1.018358   -2.157798
      3          1           0        0.881924   -0.509179   -2.157798
      4          1           0       -0.881924   -0.509179   -2.157798
      5         53           0        0.000000    0.000000    0.324345
 ---------------------------------------------------------------------
 Rotational constants (GHZ):    161.1794307      7.6513345      7.6513345
 Standard basis: STO-3G (5D, 7F)
 There are    27 symmetry adapted cartesian basis functions of A'  symmetry.
 There are    10 symmetry adapted cartesian basis functions of A"  symmetry.
 There are    25 symmetry adapted basis functions of A'  symmetry.
 There are    10 symmetry adapted basis functions of A"  symmetry.
    35 basis functions,   111 primitive gaussians,    37 cartesian basis functions
    31 alpha electrons       31 beta electrons
       nuclear repulsion energy       120.7817912532 Hartrees.
 NAtoms=    5 NActive=    5 NUniq=    3 SFac= 2.78D+00 NAtFMM=   60 NAOKFM=F Big=F
 Integral buffers will be    131072 words long.
 Raffenetti 1 integral format.
 Two-electron integral symmetry is turned on.
 One-electron integrals computed using PRISM.
 NBasis=    35 RedAO= T EigKep=  2.52D-01  NBF=    25    10
 NBsUse=    35 1.00D-06 EigRej= -1.00D+00 NBFU=    25    10
 ExpMin= 1.69D-01 ExpMax= 6.04D+03 ExpMxC= 6.04D+03 IAcc=1 IRadAn=         1 AccDes= 0.00D+00
 Harris functional with IExCor=  205 and IRadAn=       1 diagonalized for initial guess.
 HarFok:  IExCor=  205 AccDes= 0.00D+00 IRadAn=         1 IDoV= 1 UseB2=F ITyADJ=14
 ICtDFT=  3500011 ScaDFX=  1.000000  1.000000  1.000000  1.000000
 Defaulting to unpruned grid for atomic number  53.
 FoFCou: FMM=F IPFlag=           0 FMFlag=      100000 FMFlg1=           0
         NFxFlg=           0 DoJE=T BraDBF=F KetDBF=T FulRan=T
         wScrn=  0.000000 ICntrl=     500 IOpCl=  0 I1Cent=   200000004 NGrid=           0
         NMat0=    1 NMatS0=      1 NMatT0=    0 NMatD0=    1 NMtDS0=    0 NMtDT0=    0
 Petite list used in FoFCou.
 Initial guess orbital symmetries:
       Occupied  (A1) (A1) (A1) (E) (E) (A1) (A1) (E) (E) (A1)
                 (E) (E) (E) (E) (A1) (A1) (A1) (E) (E) (A1) (E)
                 (E) (E) (E) (A1) (E) (E) (A1) (A1) (E) (E)
       Virtual   (A1) (E) (E) (A1)
 The electronic state of the initial guess is 1-A1.
 Keep R1 ints in memory in symmetry-blocked form, NReq=1055351.
 Requested convergence on RMS density matrix=1.00D-08 within 128 cycles.
 Requested convergence on MAX density matrix=1.00D-06.
 Requested convergence on             energy=1.00D-06.
 No special actions if energy rises.
 SCF Done:  E(RHF) =  -6889.83984463     A.U. after    8 cycles
            NFock=  8  Conv=0.41D-08     -V/T= 1.9999

 **********************************************************************

            Population analysis using the SCF density.

 **********************************************************************

 Orbital symmetries:
       Occupied  (A1) (A1) (A1) (E) (E) (A1) (A1) (E) (E) (A1)
                 (E) (E) (E) (E) (A1) (A1) (A1) (E) (E) (A1) (E)
                 (E) (E) (E) (A1) (A1) (E) (E) (A1) (E) (E)
       Virtual   (A1) (E) (E) (A1)
 The electronic state is 1-A1.
 Alpha  occ. eigenvalues -- **********-177.16070-168.44314-168.44233-168.44233
 Alpha  occ. eigenvalues --  -35.60705 -32.54480 -32.54072 -32.54072 -23.36119
 Alpha  occ. eigenvalues --  -23.36010 -23.36010 -23.35654 -23.35654 -11.07256
 Alpha  occ. eigenvalues --   -6.55019  -5.16108  -5.14546  -5.14546  -1.96700
 Alpha  occ. eigenvalues --   -1.96123  -1.96123  -1.94733  -1.94733  -0.94537
 Alpha  occ. eigenvalues --   -0.65758  -0.56451  -0.56451  -0.39240  -0.27371
 Alpha  occ. eigenvalues --   -0.27371
 Alpha virt. eigenvalues --    0.31229   0.68099   0.68099   0.72056
          Condensed to atoms (all electrons):
               1          2          3          4          5
     1  C    4.861454   0.383844   0.383844   0.383844   0.259752
     2  H    0.383844   0.593492  -0.021096  -0.021096  -0.020808
     3  H    0.383844  -0.021096   0.593492  -0.021096  -0.020808
     4  H    0.383844  -0.021096  -0.021096   0.593492  -0.020808
     5  I    0.259752  -0.020808  -0.020808  -0.020808  52.786919
 Mulliken charges:
               1
     1  C   -0.272740
     2  H    0.085663
     3  H    0.085663
     4  H    0.085663
     5  I    0.015751
 Sum of Mulliken charges =   0.00000
 Mulliken charges with hydrogens summed into heavy atoms:
               1
     1  C   -0.015751
     5  I    0.015751
 Electronic spatial extent (au):  <R**2>=            221.9681
 Charge=              0.0000 electrons
 Dipole moment (field-independent basis, Debye):
    X=              0.0000    Y=              0.0000    Z=             -1.7298  Tot=              1.7298
 Quadrupole moment (field-independent basis, Debye-Ang):
   XX=            -33.4529   YY=            -33.4529   ZZ=            -30.8896
   XY=              0.0000   XZ=              0.0000   YZ=              0.0000
 Traceless Quadrupole moment (field-independent basis, Debye-Ang):
   XX=             -0.8544   YY=             -0.8544   ZZ=              1.7089
   XY=              0.0000   XZ=              0.0000   YZ=              0.0000
 Octapole moment (field-independent basis, Debye-Ang**2):
  XXX=              0.0000  YYY=              0.5442  ZZZ=             13.4360  XYY=              0.0000
  XXY=             -0.5442  XXZ=              3.5339  XZZ=              0.0000  YZZ=              0.0000
  YYZ=              3.5339  XYZ=              0.0000
 Hexadecapole moment (field-independent basis, Debye-Ang**3):
 XXXX=            -39.9367 YYYY=            -39.9367 ZZZZ=           -197.4447 XXXY=              0.0000
 XXXZ=              0.0000 YYYX=              0.0000 YYYZ=             -1.2445 ZZZX=              0.0000
 ZZZY=              0.0000 XXYY=            -13.3122 XXZZ=            -38.8130 YYZZ=            -38.8130
 XXYZ=              1.2445 YYXZ=              0.0000 ZZXY=              0.0000
 N-N= 1.207817912532D+02 E-N=-1.662505759541D+04  KE= 6.890749515149D+03
 Symmetry A'   KE= 5.771663740401D+03
 Symmetry A"   KE= 1.119085774747D+03
 1\1\GINC-LEGION\SP\RHF\STO-3G\C1H3I1\HIMANSHU\17-Feb-2025\0\\# hf/sto-
 3g geom=connectivity\\Title Card Required\\0,1\C,0,0.,0.,-1.78614795\H
 ,0,0.,1.01835826,-2.15779819\H,0,0.88192413,-0.50917913,-2.15779819\H,
 0,-0.88192413,-0.50917913,-2.15779819\I,0,0.,0.,0.32434495\\Version=AM
 64L-G09RevD.01\State=1-A1\HF=-6889.8398446\RMSD=4.144e-09\Dipole=0.,0.
 ,-0.6805597\Quadrupole=-0.6352509,-0.6352509,1.2705017,0.,0.,0.\PG=C03
 V [C3(C1I1),3SGV(H1)]\\@


 TIME IS IN FACT THE HERO OF THE PLOT. THE TIME
 WITH WHICH WE HAVE TO DEAL IS OF THE ORDER OF TWO
 BILLION YEARS...GIVEN SO MUCH TIME, THE "IMPOSSIBLE"
 BECOMES POSSIBLE, THE POSSIBLE PROBABLE, THE PROBABLE
 VIRTUALLY CERTAIN.  ONE HAS ONLY TO WAIT, TIME
 ITSELF PERFORMS THE MIRACLES.
 "ORIGIN OF LIFE" LECTURES, GEORGE WALD, 1954
 Job cpu time:       0 days  0 hours  0 minutes  1.0 seconds.
 File lengths (MBytes):  RWF=      5 Int=      0 D2E=      0 Chk=      1 Scr=      1
 Normal termination of Gaussian 09 at Mon Feb 17 22:18:42 2025.
