 Entering Gaussian System, Link 0=g09
 Input=/home/himanshu/git/molecular-modeling/a1/q1/r4/transition_state.com
 Output=/home/himanshu/git/molecular-modeling/a1/q1/r4/transition_state.log
 Initial command:
 /home/himanshu/work/Gview_and_Gaussian/g09/l1.exe "/home/himanshu/work/Gview_and_Gaussian/g09/scratch/Gau-94434.inp" -scrdir="/home/himanshu/work/Gview_and_Gaussian/g09/scratch/"
 Entering Link 1 = /home/himanshu/work/Gview_and_Gaussian/g09/l1.exe PID=     94436.
  
 Copyright (c) 1988,1990,1992,1993,1995,1998,2003,2009,2013,
            Gaussian, Inc.  All Rights Reserved.
  
 This is part of the Gaussian(R) 09 program.  It is based on
 the Gaussian(R) 03 system (copyright 2003, Gaussian, Inc.),
 the Gaussian(R) 98 system (copyright 1998, Gaussian, Inc.),
 the Gaussian(R) 94 system (copyright 1995, Gaussian, Inc.),
 the Gaussian 92(TM) system (copyright 1992, Gaussian, Inc.),
 the Gaussian 90(TM) system (copyright 1990, Gaussian, Inc.),
 the Gaussian 88(TM) system (copyright 1988, Gaussian, Inc.),
 the Gaussian 86(TM) system (copyright 1986, Carnegie Mellon
 University), and the Gaussian 82(TM) system (copyright 1983,
 Carnegie Mellon University). Gaussian is a federally registered
 trademark of Gaussian, Inc.
  
 This software contains proprietary and confidential information,
 including trade secrets, belonging to Gaussian, Inc.
  
 This software is provided under written license and may be
 used, copied, transmitted, or stored only in accord with that
 written license.
  
 The following legend is applicable only to US Government
 contracts under FAR:
  
                    RESTRICTED RIGHTS LEGEND
  
 Use, reproduction and disclosure by the US Government is
 subject to restrictions as set forth in subparagraphs (a)
 and (c) of the Commercial Computer Software - Restricted
 Rights clause in FAR 52.227-19.
  
 Gaussian, Inc.
 340 Quinnipiac St., Bldg. 40, Wallingford CT 06492
  
  
 ---------------------------------------------------------------
 Warning -- This program may not be used in any manner that
 competes with the business of Gaussian, Inc. or will provide
 assistance to any competitor of Gaussian, Inc.  The licensee
 of this program is prohibited from giving any competitor of
 Gaussian, Inc. access to this program.  By using this program,
 the user acknowledges that Gaussian, Inc. is engaged in the
 business of creating and licensing software in the field of
 computational chemistry and represents and warrants to the
 licensee that it is not a competitor of Gaussian, Inc. and that
 it will not use this program in any manner prohibited above.
 ---------------------------------------------------------------
  

 Cite this work as:
 Gaussian 09, Revision D.01,
 M. J. Frisch, G. W. Trucks, H. B. Schlegel, G. E. Scuseria, 
 M. A. Robb, J. R. Cheeseman, G. Scalmani, V. Barone, B. Mennucci, 
 G. A. Petersson, H. Nakatsuji, M. Caricato, X. Li, H. P. Hratchian, 
 A. F. Izmaylov, J. Bloino, G. Zheng, J. L. Sonnenberg, M. Hada, 
 M. Ehara, K. Toyota, R. Fukuda, J. Hasegawa, M. Ishida, T. Nakajima, 
 Y. Honda, O. Kitao, H. Nakai, T. Vreven, J. A. Montgomery, Jr., 
 J. E. Peralta, F. Ogliaro, M. Bearpark, J. J. Heyd, E. Brothers, 
 K. N. Kudin, V. N. Staroverov, T. Keith, R. Kobayashi, J. Normand, 
 K. Raghavachari, A. Rendell, J. C. Burant, S. S. Iyengar, J. Tomasi, 
 M. Cossi, N. Rega, J. M. Millam, M. Klene, J. E. Knox, J. B. Cross, 
 V. Bakken, C. Adamo, J. Jaramillo, R. Gomperts, R. E. Stratmann, 
 O. Yazyev, A. J. Austin, R. Cammi, C. Pomelli, J. W. Ochterski, 
 R. L. Martin, K. Morokuma, V. G. Zakrzewski, G. A. Voth, 
 P. Salvador, J. J. Dannenberg, S. Dapprich, A. D. Daniels, 
 O. Farkas, J. B. Foresman, J. V. Ortiz, J. Cioslowski, 
 and D. J. Fox, Gaussian, Inc., Wallingford CT, 2013.
 
 ******************************************
 Gaussian 09:  AM64L-G09RevD.01 24-Apr-2013
                17-Feb-2025 
 ******************************************
 %chk=transition_state.chk
 -----------------------------
 # hf/sto-3g geom=connectivity
 -----------------------------
 1/38=1,57=2/1;
 2/12=2,17=6,18=5,40=1/2;
 3/6=3,11=9,16=1,25=1,30=1/1,2,3;
 4//1;
 5/5=2,38=5/2;
 6/7=2,8=2,9=2,10=2,28=1/1;
 99/5=1,9=1/99;
 -------------------
 Title Card Required
 -------------------
 Symbolic Z-matrix:
 Charge = -1 Multiplicity = 1
 C                    -0.01113  -0.01812   0.00009 
 H                    -0.37433  -0.54068  -0.87733 
 H                    -0.37444  -0.52196   0.88834 
 H                    -0.39077   0.99708  -0.01069 
 I                     2.1322    0.00194  -0.00001 
 Br                   -3.19429   0.00204  -0.00001 
 
                          Input orientation:                          
 ---------------------------------------------------------------------
 Center     Atomic      Atomic             Coordinates (Angstroms)
 Number     Number       Type             X           Y           Z
 ---------------------------------------------------------------------
      1          6           0       -0.011132   -0.018121    0.000090
      2          1           0       -0.374334   -0.540679   -0.877326
      3          1           0       -0.374437   -0.521963    0.888345
      4          1           0       -0.390769    0.997084   -0.010689
      5         53           0        2.132198    0.001939   -0.000010
      6         35           0       -3.194291    0.002044   -0.000010
 ---------------------------------------------------------------------
                    Distance matrix (angstroms):
                    1          2          3          4          5
     1  C    0.000000
     2  H    1.083902   0.000000
     3  H    1.083902   1.765771   0.000000
     4  H    1.083919   1.765232   1.765228   0.000000
     5  I    2.143424   2.710503   2.710510   2.712157   0.000000
     6  Br   3.183223   3.002730   3.002555   2.974887   5.326489
                    6
     6  Br   0.000000
 Stoichiometry    CH3BrI(1-)
 Framework group  C1[X(CH3BrI)]
 Deg. of freedom    12
 Full point group                 C1      NOp   1
 Largest Abelian subgroup         C1      NOp   1
 Largest concise Abelian subgroup C1      NOp   1
                         Standard orientation:                         
 ---------------------------------------------------------------------
 Center     Atomic      Atomic             Coordinates (Angstroms)
 Number     Number       Type             X           Y           Z
 ---------------------------------------------------------------------
      1          6           0       -0.011132   -0.018121    0.000090
      2          1           0       -0.374334   -0.540679   -0.877326
      3          1           0       -0.374437   -0.521963    0.888345
      4          1           0       -0.390769    0.997084   -0.010689
      5         53           0        2.132198    0.001939   -0.000010
      6         35           0       -3.194291    0.002044   -0.000010
 ---------------------------------------------------------------------
 Rotational constants (GHZ):    160.5905651      0.3654659      0.3654647
 Standard basis: STO-3G (5D, 7F)
 There are    56 symmetry adapted cartesian basis functions of A   symmetry.
 There are    53 symmetry adapted basis functions of A   symmetry.
    53 basis functions,   168 primitive gaussians,    56 cartesian basis functions
    49 alpha electrons       49 beta electrons
       nuclear repulsion energy       356.9954330624 Hartrees.
 NAtoms=    6 NActive=    6 NUniq=    6 SFac= 1.00D+00 NAtFMM=   60 NAOKFM=F Big=F
 Integral buffers will be    131072 words long.
 Raffenetti 1 integral format.
 Two-electron integral symmetry is turned on.
 One-electron integrals computed using PRISM.
 NBasis=    53 RedAO= T EigKep=  2.35D-01  NBF=    53
 NBsUse=    53 1.00D-06 EigRej= -1.00D+00 NBFU=    53
 ExpMin= 1.69D-01 ExpMax= 6.04D+03 ExpMxC= 6.04D+03 IAcc=1 IRadAn=         1 AccDes= 0.00D+00
 Harris functional with IExCor=  205 and IRadAn=       1 diagonalized for initial guess.
 HarFok:  IExCor=  205 AccDes= 0.00D+00 IRadAn=         1 IDoV= 1 UseB2=F ITyADJ=14
 ICtDFT=  3500011 ScaDFX=  1.000000  1.000000  1.000000  1.000000
 Defaulting to unpruned grid for atomic number  53.
 FoFCou: FMM=F IPFlag=           0 FMFlag=      100000 FMFlg1=           0
         NFxFlg=           0 DoJE=T BraDBF=F KetDBF=T FulRan=T
         wScrn=  0.000000 ICntrl=     500 IOpCl=  0 I1Cent=   200000004 NGrid=           0
         NMat0=    1 NMatS0=      1 NMatT0=    0 NMatD0=    1 NMtDS0=    0 NMtDT0=    0
 Petite list used in FoFCou.
 Keep R1 ints in memory in canonical form, NReq=1890723.
 Requested convergence on RMS density matrix=1.00D-08 within 128 cycles.
 Requested convergence on MAX density matrix=1.00D-06.
 Requested convergence on             energy=1.00D-06.
 No special actions if energy rises.
 DSYEVD-2 returned Info=         107 IAlg= 4 N=    53 NDim=    53 NE2=      613160 trying  DSYEV.
 DSYEVD-2 returned Info=         107 IAlg= 4 N=    53 NDim=    53 NE2=      613160 trying  DSYEV.
 SCF Done:  E(RHF) =  -9434.38345603     A.U. after    9 cycles
            NFock=  9  Conv=0.18D-08     -V/T= 1.9996

 **********************************************************************

            Population analysis using the SCF density.

 **********************************************************************

 Orbital symmetries:
       Occupied  (A) (A) (A) (A) (A) (A) (A) (A) (A) (A) (A) (A)
                 (A) (A) (A) (A) (A) (A) (A) (A) (A) (A) (A) (A)
                 (A) (A) (A) (A) (A) (A) (A) (A) (A) (A) (A) (A)
                 (A) (A) (A) (A) (A) (A) (A) (A) (A) (A) (A) (A)
                 (A)
       Virtual   (A) (A) (A) (A)
 The electronic state is 1-A.
 Alpha  occ. eigenvalues -- **********-483.86686-177.02560-168.30791-168.30721
 Alpha  occ. eigenvalues -- -168.30721 -62.60697 -57.15484 -57.15478 -57.15478
 Alpha  occ. eigenvalues --  -35.47284 -32.41031 -32.40674 -32.40674 -23.22661
 Alpha  occ. eigenvalues --  -23.22566 -23.22566 -23.22256 -23.22256 -10.93186
 Alpha  occ. eigenvalues --   -8.58326  -6.41816  -6.32839  -6.32797  -6.32796
 Alpha  occ. eigenvalues --   -5.02810  -5.01432  -5.01432  -1.83370  -1.82866
 Alpha  occ. eigenvalues --   -1.82866  -1.81647  -1.81647  -1.68001  -1.67989
 Alpha  occ. eigenvalues --   -1.67989  -1.67952  -1.67952  -0.79128  -0.52751
 Alpha  occ. eigenvalues --   -0.42516  -0.41296  -0.41257  -0.25711  -0.15504
 Alpha  occ. eigenvalues --   -0.15503   0.08159   0.08160   0.08340
 Alpha virt. eigenvalues --    0.43913   0.83346   0.83360   0.88015
          Condensed to atoms (all electrons):
               1          2          3          4          5          6
     1  C    4.838068   0.384422   0.384422   0.384374   0.242010  -0.002476
     2  H    0.384422   0.569743  -0.019748  -0.019720  -0.020634   0.000432
     3  H    0.384422  -0.019748   0.569730  -0.019719  -0.020633   0.000433
     4  H    0.384374  -0.019720  -0.019719   0.567568  -0.020501   0.000536
     5  I    0.242010  -0.020634  -0.020633  -0.020501  52.931087   0.000057
     6  Br  -0.002476   0.000432   0.000433   0.000536   0.000057  35.977295
 Mulliken charges:
               1
     1  C   -0.230819
     2  H    0.105504
     3  H    0.105516
     4  H    0.107461
     5  I   -0.111385
     6  Br  -0.976277
 Sum of Mulliken charges =  -1.00000
 Mulliken charges with hydrogens summed into heavy atoms:
               1
     1  C    0.087662
     5  I   -0.111385
     6  Br  -0.976277
 Electronic spatial extent (au):  <R**2>=           2302.7023
 Charge=             -1.0000 electrons
 Dipole moment (field-independent basis, Debye):
    X=             12.0126    Y=             -0.0289    Z=              0.0001  Tot=             12.0126
 Quadrupole moment (field-independent basis, Debye-Ang):
   XX=           -105.3306   YY=            -51.0652   ZZ=            -51.0722
   XY=              0.0208   XZ=             -0.0001   YZ=             -0.0001
 Traceless Quadrupole moment (field-independent basis, Debye-Ang):
   XX=            -36.1746   YY=             18.0908   ZZ=             18.0838
   XY=              0.0208   XZ=             -0.0001   YZ=             -0.0001
 Octapole moment (field-independent basis, Debye-Ang**2):
  XXX=            143.4955  YYY=              0.7403  ZZZ=              0.0196  XYY=             -0.9177
  XXY=             -0.0130  XXZ=              0.0001  XZZ=             -0.9006  YZZ=             -0.5983
  YYZ=             -0.0203  XYZ=              0.0002
 Hexadecapole moment (field-independent basis, Debye-Ang**3):
 XXXX=          -2353.3966 YYYY=            -54.7432 ZZZZ=            -54.6912 XXXY=              0.4718
 XXXZ=             -0.0023 YYYX=             -0.3311 YYYZ=              0.0013 ZZZX=             -0.0099
 ZZZY=             -0.0007 XXYY=           -320.9206 XXZZ=           -320.9378 YYZZ=            -18.2019
 XXYZ=             -0.0002 YYXZ=              0.0100 ZZXY=              0.3092
 N-N= 3.569954330624D+02 E-N=-2.323403594766D+04  KE= 9.438034143797D+03
 1\1\GINC-LEGION\SP\RHF\STO-3G\C1H3Br1I1(1-)\HIMANSHU\17-Feb-2025\0\\# 
 hf/sto-3g geom=connectivity\\Title Card Required\\-1,1\C,0,-0.01113196
 ,-0.01812123,0.00009014\H,0,-0.37433438,-0.54067947,-0.8773264\H,0,-0.
 37443656,-0.52196261,0.88834491\H,0,-0.39076922,0.99708353,-0.0106892\
 I,0,2.1321984,0.0019387,-0.00000969\Br,0,-3.19429094,0.00204385,-0.000
 01019\\Version=AM64L-G09RevD.01\State=1-A\HF=-9434.383456\RMSD=1.801e-
 09\Dipole=4.7261219,-0.0113692,0.0000564\Quadrupole=-26.8949216,13.450
 051,13.4448706,0.0154301,-0.0000742,-0.0000676\PG=C01 [X(C1H3Br1I1)]\\
 @


 SEE YOU NOW,
 YOUR BAIT OF FALSEHOOD TAKES THIS CARP OF TRUTH.
 AND THUS DO WE OF WISDOM AND OF REACH...
 BY INDIRECTIONS FIND DIRECTIONS OUT.    -- HAMLET, II, 1
 Job cpu time:       0 days  0 hours  0 minutes  1.2 seconds.
 File lengths (MBytes):  RWF=      5 Int=      0 D2E=      0 Chk=      1 Scr=      1
 Normal termination of Gaussian 09 at Mon Feb 17 23:17:44 2025.
