 Entering Gaussian System, Link 0=g09
 Input=/home/himanshu/git/molecular-modeling/a1/q1/bromo_methane.com
 Output=/home/himanshu/git/molecular-modeling/a1/q1/bromo_methane.log
 Initial command:
 /home/himanshu/work/Gview_and_Gaussian/g09/l1.exe "/home/himanshu/work/Gview_and_Gaussian/g09/scratch/Gau-26136.inp" -scrdir="/home/himanshu/work/Gview_and_Gaussian/g09/scratch/"
 Entering Link 1 = /home/himanshu/work/Gview_and_Gaussian/g09/l1.exe PID=     26138.
  
 Copyright (c) 1988,1990,1992,1993,1995,1998,2003,2009,2013,
            Gaussian, Inc.  All Rights Reserved.
  
 This is part of the Gaussian(R) 09 program.  It is based on
 the Gaussian(R) 03 system (copyright 2003, Gaussian, Inc.),
 the Gaussian(R) 98 system (copyright 1998, Gaussian, Inc.),
 the Gaussian(R) 94 system (copyright 1995, Gaussian, Inc.),
 the Gaussian 92(TM) system (copyright 1992, Gaussian, Inc.),
 the Gaussian 90(TM) system (copyright 1990, Gaussian, Inc.),
 the Gaussian 88(TM) system (copyright 1988, Gaussian, Inc.),
 the Gaussian 86(TM) system (copyright 1986, Carnegie Mellon
 University), and the Gaussian 82(TM) system (copyright 1983,
 Carnegie Mellon University). Gaussian is a federally registered
 trademark of Gaussian, Inc.
  
 This software contains proprietary and confidential information,
 including trade secrets, belonging to Gaussian, Inc.
  
 This software is provided under written license and may be
 used, copied, transmitted, or stored only in accord with that
 written license.
  
 The following legend is applicable only to US Government
 contracts under FAR:
  
                    RESTRICTED RIGHTS LEGEND
  
 Use, reproduction and disclosure by the US Government is
 subject to restrictions as set forth in subparagraphs (a)
 and (c) of the Commercial Computer Software - Restricted
 Rights clause in FAR 52.227-19.
  
 Gaussian, Inc.
 340 Quinnipiac St., Bldg. 40, Wallingford CT 06492
  
  
 ---------------------------------------------------------------
 Warning -- This program may not be used in any manner that
 competes with the business of Gaussian, Inc. or will provide
 assistance to any competitor of Gaussian, Inc.  The licensee
 of this program is prohibited from giving any competitor of
 Gaussian, Inc. access to this program.  By using this program,
 the user acknowledges that Gaussian, Inc. is engaged in the
 business of creating and licensing software in the field of
 computational chemistry and represents and warrants to the
 licensee that it is not a competitor of Gaussian, Inc. and that
 it will not use this program in any manner prohibited above.
 ---------------------------------------------------------------
  

 Cite this work as:
 Gaussian 09, Revision D.01,
 M. J. Frisch, G. W. Trucks, H. B. Schlegel, G. E. Scuseria, 
 M. A. Robb, J. R. Cheeseman, G. Scalmani, V. Barone, B. Mennucci, 
 G. A. Petersson, H. Nakatsuji, M. Caricato, X. Li, H. P. Hratchian, 
 A. F. Izmaylov, J. Bloino, G. Zheng, J. L. Sonnenberg, M. Hada, 
 M. Ehara, K. Toyota, R. Fukuda, J. Hasegawa, M. Ishida, T. Nakajima, 
 Y. Honda, O. Kitao, H. Nakai, T. Vreven, J. A. Montgomery, Jr., 
 J. E. Peralta, F. Ogliaro, M. Bearpark, J. J. Heyd, E. Brothers, 
 K. N. Kudin, V. N. Staroverov, T. Keith, R. Kobayashi, J. Normand, 
 K. Raghavachari, A. Rendell, J. C. Burant, S. S. Iyengar, J. Tomasi, 
 M. Cossi, N. Rega, J. M. Millam, M. Klene, J. E. Knox, J. B. Cross, 
 V. Bakken, C. Adamo, J. Jaramillo, R. Gomperts, R. E. Stratmann, 
 O. Yazyev, A. J. Austin, R. Cammi, C. Pomelli, J. W. Ochterski, 
 R. L. Martin, K. Morokuma, V. G. Zakrzewski, G. A. Voth, 
 P. Salvador, J. J. Dannenberg, S. Dapprich, A. D. Daniels, 
 O. Farkas, J. B. Foresman, J. V. Ortiz, J. Cioslowski, 
 and D. J. Fox, Gaussian, Inc., Wallingford CT, 2013.
 
 ******************************************
 Gaussian 09:  AM64L-G09RevD.01 24-Apr-2013
                17-Feb-2025 
 ******************************************
 %chk=bromo_methane.chk
 -----------------------------
 # hf/sto-3g geom=connectivity
 -----------------------------
 1/38=1,57=2/1;
 2/12=2,17=6,18=5,40=1/2;
 3/6=3,11=9,16=1,25=1,30=1/1,2,3;
 4//1;
 5/5=2,38=5/2;
 6/7=2,8=2,9=2,10=2,28=1/1;
 99/5=1,9=1/99;
 -------------------
 Title Card Required
 -------------------
 Symbolic Z-matrix:
 Charge =  0 Multiplicity = 1
 C                     0.        0.       -1.49009 
 H                     0.        1.02108  -1.86185 
 H                     0.88428  -0.51054  -1.86185 
 H                    -0.88428  -0.51054  -1.86185 
 Br                    0.        0.        0.41503 
 
                          Input orientation:                          
 ---------------------------------------------------------------------
 Center     Atomic      Atomic             Coordinates (Angstroms)
 Number     Number       Type             X           Y           Z
 ---------------------------------------------------------------------
      1          6           0        0.000000    0.000000   -1.490089
      2          1           0        0.000000    1.021081   -1.861852
      3          1           0        0.884282   -0.510541   -1.861852
      4          1           0       -0.884282   -0.510541   -1.861852
      5         35           0        0.000000    0.000000    0.415031
 ---------------------------------------------------------------------
                    Distance matrix (angstroms):
                    1          2          3          4          5
     1  C    0.000000
     2  H    1.086653   0.000000
     3  H    1.086653   1.768565   0.000000
     4  H    1.086653   1.768565   1.768565   0.000000
     5  Br   1.905120   2.495357   2.495357   2.495357   0.000000
 Stoichiometry    CH3Br
 Framework group  C3V[C3(CBr),3SGV(H)]
 Deg. of freedom     3
 Full point group                 C3V     NOp   6
 Largest Abelian subgroup         CS      NOp   2
 Largest concise Abelian subgroup CS      NOp   2
                         Standard orientation:                         
 ---------------------------------------------------------------------
 Center     Atomic      Atomic             Coordinates (Angstroms)
 Number     Number       Type             X           Y           Z
 ---------------------------------------------------------------------
      1          6           0        0.000000    0.000000   -1.490089
      2          1           0        0.000000    1.021081   -1.861852
      3          1           0        0.884282   -0.510541   -1.861852
      4          1           0       -0.884282   -0.510541   -1.861852
      5         35           0        0.000000    0.000000    0.415031
 ---------------------------------------------------------------------
 Rotational constants (GHZ):    160.3208820      9.8350157      9.8350157
 Standard basis: STO-3G (5D, 7F)
 There are    20 symmetry adapted cartesian basis functions of A'  symmetry.
 There are     7 symmetry adapted cartesian basis functions of A"  symmetry.
 There are    19 symmetry adapted basis functions of A'  symmetry.
 There are     7 symmetry adapted basis functions of A"  symmetry.
    26 basis functions,    81 primitive gaussians,    27 cartesian basis functions
    22 alpha electrons       22 beta electrons
       nuclear repulsion energy        90.2608632228 Hartrees.
 NAtoms=    5 NActive=    5 NUniq=    3 SFac= 2.78D+00 NAtFMM=   60 NAOKFM=F Big=F
 Integral buffers will be    131072 words long.
 Raffenetti 1 integral format.
 Two-electron integral symmetry is turned on.
 One-electron integrals computed using PRISM.
 NBasis=    26 RedAO= T EigKep=  2.52D-01  NBF=    19     7
 NBsUse=    26 1.00D-06 EigRej= -1.00D+00 NBFU=    19     7
 ExpMin= 1.69D-01 ExpMax= 2.63D+03 ExpMxC= 2.63D+03 IAcc=1 IRadAn=         1 AccDes= 0.00D+00
 Harris functional with IExCor=  205 and IRadAn=       1 diagonalized for initial guess.
 HarFok:  IExCor=  205 AccDes= 0.00D+00 IRadAn=         1 IDoV= 1 UseB2=F ITyADJ=14
 ICtDFT=  3500011 ScaDFX=  1.000000  1.000000  1.000000  1.000000
 FoFCou: FMM=F IPFlag=           0 FMFlag=      100000 FMFlg1=           0
         NFxFlg=           0 DoJE=T BraDBF=F KetDBF=T FulRan=T
         wScrn=  0.000000 ICntrl=     500 IOpCl=  0 I1Cent=   200000004 NGrid=           0
         NMat0=    1 NMatS0=      1 NMatT0=    0 NMatD0=    1 NMtDS0=    0 NMtDT0=    0
 Petite list used in FoFCou.
 Initial guess orbital symmetries:
       Occupied  (A1) (A1) (A1) (E) (E) (A1) (A1) (A1) (E) (E)
                 (A1) (E) (E) (E) (E) (A1) (A1) (E) (E) (A1) (E)
                 (E)
       Virtual   (A1) (E) (E) (A1)
 The electronic state of the initial guess is 1-A1.
 Keep R1 ints in memory in symmetry-blocked form, NReq=912572.
 Requested convergence on RMS density matrix=1.00D-08 within 128 cycles.
 Requested convergence on MAX density matrix=1.00D-06.
 Requested convergence on             energy=1.00D-06.
 No special actions if energy rises.
 SCF Done:  E(RHF) =  -2583.81369428     A.U. after    8 cycles
            NFock=  8  Conv=0.23D-08     -V/T= 2.0001

 **********************************************************************

            Population analysis using the SCF density.

 **********************************************************************

 Orbital symmetries:
       Occupied  (A1) (A1) (A1) (E) (E) (A1) (A1) (A1) (E) (E)
                 (A1) (E) (E) (E) (E) (A1) (A1) (E) (E) (A1) (E)
                 (E)
       Virtual   (A1) (E) (E) (A1)
 The electronic state is 1-A1.
 Alpha  occ. eigenvalues -- -484.46463 -63.19109 -57.74122 -57.73885 -57.73885
 Alpha  occ. eigenvalues --  -11.08512  -9.13750  -6.88926  -6.87629  -6.87629
 Alpha  occ. eigenvalues --   -2.24625  -2.24144  -2.24144  -2.22828  -2.22828
 Alpha  occ. eigenvalues --   -0.98481  -0.79276  -0.56913  -0.56913  -0.43515
 Alpha  occ. eigenvalues --   -0.30909  -0.30909
 Alpha virt. eigenvalues --    0.37453   0.67768   0.67768   0.71377
          Condensed to atoms (all electrons):
               1          2          3          4          5
     1  C    4.832969   0.382404   0.382404   0.382404   0.247737
     2  H    0.382404   0.593540  -0.021272  -0.021272  -0.019723
     3  H    0.382404  -0.021272   0.593540  -0.021272  -0.019723
     4  H    0.382404  -0.021272  -0.021272   0.593540  -0.019723
     5  Br   0.247737  -0.019723  -0.019723  -0.019723  34.842479
 Mulliken charges:
               1
     1  C   -0.227919
     2  H    0.086323
     3  H    0.086323
     4  H    0.086323
     5  Br  -0.031049
 Sum of Mulliken charges =   0.00000
 Mulliken charges with hydrogens summed into heavy atoms:
               1
     1  C    0.031049
     5  Br  -0.031049
 Electronic spatial extent (au):  <R**2>=            168.1920
 Charge=              0.0000 electrons
 Dipole moment (field-independent basis, Debye):
    X=              0.0000    Y=              0.0000    Z=             -1.6005  Tot=              1.6005
 Quadrupole moment (field-independent basis, Debye-Ang):
   XX=            -23.3706   YY=            -23.3706   ZZ=            -21.5616
   XY=              0.0000   XZ=              0.0000   YZ=              0.0000
 Traceless Quadrupole moment (field-independent basis, Debye-Ang):
   XX=             -0.6030   YY=             -0.6030   ZZ=              1.2060
   XY=              0.0000   XZ=              0.0000   YZ=              0.0000
 Octapole moment (field-independent basis, Debye-Ang**2):
  XXX=              0.0000  YYY=              0.5439  ZZZ=             12.9710  XYY=              0.0000
  XXY=             -0.5439  XXZ=              3.5652  XZZ=              0.0000  YZZ=              0.0000
  YYZ=              3.5652  XYZ=              0.0000
 Hexadecapole moment (field-independent basis, Debye-Ang**3):
 XXXX=            -26.2434 YYYY=            -26.2434 ZZZZ=           -142.6414 XXXY=              0.0000
 XXXZ=              0.0000 YYYX=              0.0000 YYYZ=             -1.0926 ZZZX=              0.0000
 ZZZY=              0.0000 XXYY=             -8.7478 XXZZ=            -27.5482 YYZZ=            -27.5482
 XXYZ=              1.0926 YYXZ=              0.0000 ZZXY=              0.0000
 N-N= 9.026086322276D+01 E-N=-6.377863165531D+03  KE= 2.583501934403D+03
 Symmetry A'   KE= 2.225962704390D+03
 Symmetry A"   KE= 3.575392300138D+02
 1\1\GINC-LEGION\SP\RHF\STO-3G\C1H3Br1\HIMANSHU\17-Feb-2025\0\\# hf/sto
 -3g geom=connectivity\\Title Card Required\\0,1\C,0,0.,0.,-1.49008927\
 H,0,0.,1.02108137,-1.86185239\H,0,0.8842824,-0.51054068,-1.86185239\H,
 0,-0.8842824,-0.51054068,-1.86185239\Br,0,0.,0.,0.41503122\\Version=AM
 64L-G09RevD.01\State=1-A1\HF=-2583.8136943\RMSD=2.332e-09\Dipole=0.,0.
 ,-0.6296676\Quadrupole=-0.4483149,-0.4483149,0.8966298,0.,0.,0.\PG=C03
 V [C3(C1Br1),3SGV(H1)]\\@


 The lyf so short, the craft so long to lerne.
                             -- Chaucer
 Job cpu time:       0 days  0 hours  0 minutes  1.0 seconds.
 File lengths (MBytes):  RWF=      5 Int=      0 D2E=      0 Chk=      1 Scr=      1
 Normal termination of Gaussian 09 at Mon Feb 17 21:12:37 2025.
