 Entering Gaussian System, Link 0=g09
 Input=/home/himanshu/git/molecular-modeling/a1/q1/r1/transition_state.com
 Output=/home/himanshu/git/molecular-modeling/a1/q1/r1/transition_state.log
 Initial command:
 /home/himanshu/work/Gview_and_Gaussian/g09/l1.exe "/home/himanshu/work/Gview_and_Gaussian/g09/scratch/Gau-39764.inp" -scrdir="/home/himanshu/work/Gview_and_Gaussian/g09/scratch/"
 Entering Link 1 = /home/himanshu/work/Gview_and_Gaussian/g09/l1.exe PID=     39766.
  
 Copyright (c) 1988,1990,1992,1993,1995,1998,2003,2009,2013,
            Gaussian, Inc.  All Rights Reserved.
  
 This is part of the Gaussian(R) 09 program.  It is based on
 the Gaussian(R) 03 system (copyright 2003, Gaussian, Inc.),
 the Gaussian(R) 98 system (copyright 1998, Gaussian, Inc.),
 the Gaussian(R) 94 system (copyright 1995, Gaussian, Inc.),
 the Gaussian 92(TM) system (copyright 1992, Gaussian, Inc.),
 the Gaussian 90(TM) system (copyright 1990, Gaussian, Inc.),
 the Gaussian 88(TM) system (copyright 1988, Gaussian, Inc.),
 the Gaussian 86(TM) system (copyright 1986, Carnegie Mellon
 University), and the Gaussian 82(TM) system (copyright 1983,
 Carnegie Mellon University). Gaussian is a federally registered
 trademark of Gaussian, Inc.
  
 This software contains proprietary and confidential information,
 including trade secrets, belonging to Gaussian, Inc.
  
 This software is provided under written license and may be
 used, copied, transmitted, or stored only in accord with that
 written license.
  
 The following legend is applicable only to US Government
 contracts under FAR:
  
                    RESTRICTED RIGHTS LEGEND
  
 Use, reproduction and disclosure by the US Government is
 subject to restrictions as set forth in subparagraphs (a)
 and (c) of the Commercial Computer Software - Restricted
 Rights clause in FAR 52.227-19.
  
 Gaussian, Inc.
 340 Quinnipiac St., Bldg. 40, Wallingford CT 06492
  
  
 ---------------------------------------------------------------
 Warning -- This program may not be used in any manner that
 competes with the business of Gaussian, Inc. or will provide
 assistance to any competitor of Gaussian, Inc.  The licensee
 of this program is prohibited from giving any competitor of
 Gaussian, Inc. access to this program.  By using this program,
 the user acknowledges that Gaussian, Inc. is engaged in the
 business of creating and licensing software in the field of
 computational chemistry and represents and warrants to the
 licensee that it is not a competitor of Gaussian, Inc. and that
 it will not use this program in any manner prohibited above.
 ---------------------------------------------------------------
  

 Cite this work as:
 Gaussian 09, Revision D.01,
 M. J. Frisch, G. W. Trucks, H. B. Schlegel, G. E. Scuseria, 
 M. A. Robb, J. R. Cheeseman, G. Scalmani, V. Barone, B. Mennucci, 
 G. A. Petersson, H. Nakatsuji, M. Caricato, X. Li, H. P. Hratchian, 
 A. F. Izmaylov, J. Bloino, G. Zheng, J. L. Sonnenberg, M. Hada, 
 M. Ehara, K. Toyota, R. Fukuda, J. Hasegawa, M. Ishida, T. Nakajima, 
 Y. Honda, O. Kitao, H. Nakai, T. Vreven, J. A. Montgomery, Jr., 
 J. E. Peralta, F. Ogliaro, M. Bearpark, J. J. Heyd, E. Brothers, 
 K. N. Kudin, V. N. Staroverov, T. Keith, R. Kobayashi, J. Normand, 
 K. Raghavachari, A. Rendell, J. C. Burant, S. S. Iyengar, J. Tomasi, 
 M. Cossi, N. Rega, J. M. Millam, M. Klene, J. E. Knox, J. B. Cross, 
 V. Bakken, C. Adamo, J. Jaramillo, R. Gomperts, R. E. Stratmann, 
 O. Yazyev, A. J. Austin, R. Cammi, C. Pomelli, J. W. Ochterski, 
 R. L. Martin, K. Morokuma, V. G. Zakrzewski, G. A. Voth, 
 P. Salvador, J. J. Dannenberg, S. Dapprich, A. D. Daniels, 
 O. Farkas, J. B. Foresman, J. V. Ortiz, J. Cioslowski, 
 and D. J. Fox, Gaussian, Inc., Wallingford CT, 2013.
 
 ******************************************
 Gaussian 09:  AM64L-G09RevD.01 24-Apr-2013
                17-Feb-2025 
 ******************************************
 %chk=transition_state.chk
 -----------------------------
 # hf/sto-3g geom=connectivity
 -----------------------------
 1/38=1,57=2/1;
 2/12=2,17=6,18=5,40=1/2;
 3/6=3,11=9,16=1,25=1,30=1/1,2,3;
 4//1;
 5/5=2,38=5/2;
 6/7=2,8=2,9=2,10=2,28=1/1;
 99/5=1,9=1/99;
 -------------------
 Title Card Required
 -------------------
 Symbolic Z-matrix:
 Charge = -1 Multiplicity = 1
 C                    -0.19413  -0.00462  -0.00001 
 H                    -0.56986   0.50407   0.88256 
 H                    -0.56985   0.50373  -0.88277 
 H                    -0.56498  -1.02507   0.00019 
 Cl                   -3.39393   0.00101   0. 
 Br                    1.73046   0.00079   0. 
 
                          Input orientation:                          
 ---------------------------------------------------------------------
 Center     Atomic      Atomic             Coordinates (Angstroms)
 Number     Number       Type             X           Y           Z
 ---------------------------------------------------------------------
      1          6           0       -0.194130   -0.004615   -0.000008
      2          1           0       -0.569860    0.504070    0.882556
      3          1           0       -0.569850    0.503726   -0.882775
      4          1           0       -0.564975   -1.025069    0.000189
      5         17           0       -3.393926    0.001010    0.000002
      6         35           0        1.730463    0.000794    0.000001
 ---------------------------------------------------------------------
                    Distance matrix (angstroms):
                    1          2          3          4          5
     1  C    0.000000
     2  H    1.085750   0.000000
     3  H    1.085750   1.765331   0.000000
     4  H    1.085750   1.765464   1.765464   0.000000
     5  Cl   3.199800   3.001219   3.001237   3.009286   0.000000
     6  Br   1.924601   2.514692   2.514692   2.514246   5.124389
                    6
     6  Br   0.000000
 This structure is nearly, but not quite of a higher symmetry.
 Consider Symm=Loose if the higher symmetry is desired.
 Stoichiometry    CH3BrCl(1-)
 Framework group  C1[X(CH3BrCl)]
 Deg. of freedom    12
 Full point group                 C1      NOp   1
 Largest Abelian subgroup         C1      NOp   1
 Largest concise Abelian subgroup C1      NOp   1
                         Standard orientation:                         
 ---------------------------------------------------------------------
 Center     Atomic      Atomic             Coordinates (Angstroms)
 Number     Number       Type             X           Y           Z
 ---------------------------------------------------------------------
      1          6           0        0.000008    0.004615    0.194130
      2          1           0       -0.882548   -0.504085    0.569860
      3          1           0        0.882783   -0.503711    0.569850
      4          1           0       -0.000207    1.025069    0.564975
      5         17           0       -0.000002   -0.001010    3.393926
      6         35           0       -0.000001   -0.000794   -1.730463
 ---------------------------------------------------------------------
 Rotational constants (GHZ):    160.8710735      0.7888759      0.7888749
 Standard basis: STO-3G (5D, 7F)
 There are    36 symmetry adapted cartesian basis functions of A   symmetry.
 There are    35 symmetry adapted basis functions of A   symmetry.
    35 basis functions,   108 primitive gaussians,    36 cartesian basis functions
    31 alpha electrons       31 beta electrons
       nuclear repulsion energy       176.8058308655 Hartrees.
 NAtoms=    6 NActive=    6 NUniq=    6 SFac= 1.00D+00 NAtFMM=   60 NAOKFM=F Big=F
 Integral buffers will be    131072 words long.
 Raffenetti 1 integral format.
 Two-electron integral symmetry is turned on.
 One-electron integrals computed using PRISM.
 NBasis=    35 RedAO= T EigKep=  2.34D-01  NBF=    35
 NBsUse=    35 1.00D-06 EigRej= -1.00D+00 NBFU=    35
 ExpMin= 1.69D-01 ExpMax= 2.63D+03 ExpMxC= 2.63D+03 IAcc=1 IRadAn=         1 AccDes= 0.00D+00
 Harris functional with IExCor=  205 and IRadAn=       1 diagonalized for initial guess.
 HarFok:  IExCor=  205 AccDes= 0.00D+00 IRadAn=         1 IDoV= 1 UseB2=F ITyADJ=14
 ICtDFT=  3500011 ScaDFX=  1.000000  1.000000  1.000000  1.000000
 FoFCou: FMM=F IPFlag=           0 FMFlag=      100000 FMFlg1=           0
         NFxFlg=           0 DoJE=T BraDBF=F KetDBF=T FulRan=T
         wScrn=  0.000000 ICntrl=     500 IOpCl=  0 I1Cent=   200000004 NGrid=           0
         NMat0=    1 NMatS0=      1 NMatT0=    0 NMatD0=    1 NMtDS0=    0 NMtDT0=    0
 Petite list used in FoFCou.
 Keep R1 ints in memory in canonical form, NReq=1053276.
 Requested convergence on RMS density matrix=1.00D-08 within 128 cycles.
 Requested convergence on MAX density matrix=1.00D-06.
 Requested convergence on             energy=1.00D-06.
 No special actions if energy rises.
 SCF Done:  E(RHF) =  -3038.30454810     A.U. after    8 cycles
            NFock=  8  Conv=0.32D-08     -V/T= 2.0019

 **********************************************************************

            Population analysis using the SCF density.

 **********************************************************************

 Orbital symmetries:
       Occupied  (A) (A) (A) (A) (A) (A) (A) (A) (A) (A) (A) (A)
                 (A) (A) (A) (A) (A) (A) (A) (A) (A) (A) (A) (A)
                 (A) (A) (A) (A) (A) (A) (A)
       Virtual   (A) (A) (A) (A)
 The electronic state is 1-A.
 Alpha  occ. eigenvalues -- -484.32607-103.01579 -63.05370 -57.60363 -57.60149
 Alpha  occ. eigenvalues --  -57.60149 -10.93830  -9.74660  -9.00270  -7.18725
 Alpha  occ. eigenvalues --   -7.18714  -7.18714  -6.75397  -6.74209  -6.74209
 Alpha  occ. eigenvalues --   -2.11041  -2.10604  -2.10604  -2.09407  -2.09407
 Alpha  occ. eigenvalues --   -0.83732  -0.65508  -0.52448  -0.41492  -0.41482
 Alpha  occ. eigenvalues --   -0.29682  -0.18666  -0.18666   0.04468   0.04468
 Alpha  occ. eigenvalues --    0.04530
 Alpha virt. eigenvalues --    0.50483   0.83291   0.83297   0.88049
          Condensed to atoms (all electrons):
               1          2          3          4          5          6
     1  C    4.813166   0.383311   0.383311   0.383306  -0.002065   0.239723
     2  H    0.383311   0.571067  -0.019918  -0.019928   0.000139  -0.019681
     3  H    0.383311  -0.019918   0.571068  -0.019928   0.000139  -0.019681
     4  H    0.383306  -0.019928  -0.019928   0.571696   0.000126  -0.019716
     5  Cl  -0.002065   0.000139   0.000139   0.000126  17.993346   0.000017
     6  Br   0.239723  -0.019681  -0.019681  -0.019716   0.000017  34.941343
 Mulliken charges:
               1
     1  C   -0.200752
     2  H    0.105009
     3  H    0.105008
     4  H    0.104443
     5  Cl  -0.991702
     6  Br  -0.122005
 Sum of Mulliken charges =  -1.00000
 Mulliken charges with hydrogens summed into heavy atoms:
               1
     1  C    0.113707
     5  Cl  -0.991702
     6  Br  -0.122005
 Electronic spatial extent (au):  <R**2>=           1212.4555
 Charge=             -1.0000 electrons
 Dipole moment (field-independent basis, Debye):
    X=              0.0000    Y=              0.0096    Z=            -13.7053  Tot=             13.7053
 Quadrupole moment (field-independent basis, Debye-Ang):
   XX=            -35.8546   YY=            -35.8566   ZZ=            -94.4045
   XY=              0.0000   XZ=              0.0000   YZ=              0.0145
 Traceless Quadrupole moment (field-independent basis, Debye-Ang):
   XX=             19.5173   YY=             19.5153   ZZ=            -39.0326
   XY=              0.0000   XZ=              0.0000   YZ=              0.0145
 Octapole moment (field-independent basis, Debye-Ang**2):
  XXX=              0.0004  YYY=              0.6003  ZZZ=           -230.7764  XYY=             -0.0004
  XXY=             -0.6267  XXZ=            -15.2990  XZZ=              0.0001  YZZ=              0.0381
  YYZ=            -15.3046  XYZ=              0.0000
 Hexadecapole moment (field-independent basis, Debye-Ang**3):
 XXXX=            -36.3201 YYYY=            -36.3122 ZZZZ=          -1832.1131 XXXY=              0.0000
 XXXZ=              0.0003 YYYX=              0.0000 YYYZ=              0.4750 ZZZX=              0.0004
 ZZZY=              0.2494 XXYY=            -12.1151 XXZZ=           -206.9247 YYZZ=           -206.9323
 XXYZ=             -0.4242 YYXZ=             -0.0003 ZZXY=              0.0000
 N-N= 1.768058308655D+02 E-N=-7.645506295985D+03  KE= 3.032449852427D+03
 1\1\GINC-LEGION\SP\RHF\STO-3G\C1H3Br1Cl1(1-)\HIMANSHU\17-Feb-2025\0\\#
  hf/sto-3g geom=connectivity\\Title Card Required\\-1,1\C,0,-0.1941303
 5,-0.00461528,-0.00000794\H,0,-0.56986023,0.5040698,0.88255647\H,0,-0.
 56984998,0.50372627,-0.8827746\H,0,-0.56497521,-1.02506932,0.00018885\
 Cl,0,-3.39392581,0.00101047,0.00000173\Br,0,1.73046304,0.00079391,0.00
 000136\\Version=AM64L-G09RevD.01\State=1-A\HF=-3038.3045481\RMSD=3.228
 e-09\Dipole=5.392083,-0.0037601,-0.0000064\Quadrupole=-29.0197852,14.5
 091236,14.5106616,0.0107567,0.0000186,0.0000016\PG=C01 [X(C1H3Br1Cl1)]
 \\@


 BOOKS ARE LIGHTHOUSES ERECTED IN THE GREAT SEA OF TIME.
     -- E.P.WHIPPLE
 Job cpu time:       0 days  0 hours  0 minutes  1.1 seconds.
 File lengths (MBytes):  RWF=      5 Int=      0 D2E=      0 Chk=      1 Scr=      1
 Normal termination of Gaussian 09 at Mon Feb 17 21:37:55 2025.
