 Entering Gaussian System, Link 0=g09
 Input=/home/himanshu/git/molecular-modeling/a1/q5/hydrogen_sulphide_dimer.com
 Output=/home/himanshu/git/molecular-modeling/a1/q5/hydrogen_sulphide_dimer.log
 Initial command:
 /home/himanshu/work/Gview_and_Gaussian/g09/l1.exe "/home/himanshu/work/Gview_and_Gaussian/g09/scratch/Gau-176640.inp" -scrdir="/home/himanshu/work/Gview_and_Gaussian/g09/scratch/"
 Entering Link 1 = /home/himanshu/work/Gview_and_Gaussian/g09/l1.exe PID=    176642.
  
 Copyright (c) 1988,1990,1992,1993,1995,1998,2003,2009,2013,
            Gaussian, Inc.  All Rights Reserved.
  
 This is part of the Gaussian(R) 09 program.  It is based on
 the Gaussian(R) 03 system (copyright 2003, Gaussian, Inc.),
 the Gaussian(R) 98 system (copyright 1998, Gaussian, Inc.),
 the Gaussian(R) 94 system (copyright 1995, Gaussian, Inc.),
 the Gaussian 92(TM) system (copyright 1992, Gaussian, Inc.),
 the Gaussian 90(TM) system (copyright 1990, Gaussian, Inc.),
 the Gaussian 88(TM) system (copyright 1988, Gaussian, Inc.),
 the Gaussian 86(TM) system (copyright 1986, Carnegie Mellon
 University), and the Gaussian 82(TM) system (copyright 1983,
 Carnegie Mellon University). Gaussian is a federally registered
 trademark of Gaussian, Inc.
  
 This software contains proprietary and confidential information,
 including trade secrets, belonging to Gaussian, Inc.
  
 This software is provided under written license and may be
 used, copied, transmitted, or stored only in accord with that
 written license.
  
 The following legend is applicable only to US Government
 contracts under FAR:
  
                    RESTRICTED RIGHTS LEGEND
  
 Use, reproduction and disclosure by the US Government is
 subject to restrictions as set forth in subparagraphs (a)
 and (c) of the Commercial Computer Software - Restricted
 Rights clause in FAR 52.227-19.
  
 Gaussian, Inc.
 340 Quinnipiac St., Bldg. 40, Wallingford CT 06492
  
  
 ---------------------------------------------------------------
 Warning -- This program may not be used in any manner that
 competes with the business of Gaussian, Inc. or will provide
 assistance to any competitor of Gaussian, Inc.  The licensee
 of this program is prohibited from giving any competitor of
 Gaussian, Inc. access to this program.  By using this program,
 the user acknowledges that Gaussian, Inc. is engaged in the
 business of creating and licensing software in the field of
 computational chemistry and represents and warrants to the
 licensee that it is not a competitor of Gaussian, Inc. and that
 it will not use this program in any manner prohibited above.
 ---------------------------------------------------------------
  

 Cite this work as:
 Gaussian 09, Revision D.01,
 M. J. Frisch, G. W. Trucks, H. B. Schlegel, G. E. Scuseria, 
 M. A. Robb, J. R. Cheeseman, G. Scalmani, V. Barone, B. Mennucci, 
 G. A. Petersson, H. Nakatsuji, M. Caricato, X. Li, H. P. Hratchian, 
 A. F. Izmaylov, J. Bloino, G. Zheng, J. L. Sonnenberg, M. Hada, 
 M. Ehara, K. Toyota, R. Fukuda, J. Hasegawa, M. Ishida, T. Nakajima, 
 Y. Honda, O. Kitao, H. Nakai, T. Vreven, J. A. Montgomery, Jr., 
 J. E. Peralta, F. Ogliaro, M. Bearpark, J. J. Heyd, E. Brothers, 
 K. N. Kudin, V. N. Staroverov, T. Keith, R. Kobayashi, J. Normand, 
 K. Raghavachari, A. Rendell, J. C. Burant, S. S. Iyengar, J. Tomasi, 
 M. Cossi, N. Rega, J. M. Millam, M. Klene, J. E. Knox, J. B. Cross, 
 V. Bakken, C. Adamo, J. Jaramillo, R. Gomperts, R. E. Stratmann, 
 O. Yazyev, A. J. Austin, R. Cammi, C. Pomelli, J. W. Ochterski, 
 R. L. Martin, K. Morokuma, V. G. Zakrzewski, G. A. Voth, 
 P. Salvador, J. J. Dannenberg, S. Dapprich, A. D. Daniels, 
 O. Farkas, J. B. Foresman, J. V. Ortiz, J. Cioslowski, 
 and D. J. Fox, Gaussian, Inc., Wallingford CT, 2013.
 
 ******************************************
 Gaussian 09:  AM64L-G09RevD.01 24-Apr-2013
                18-Feb-2025 
 ******************************************
 %chk=hydrogen_sulphide_dimer.chk
 ---------------------------------
 # opt hf/sto-3g geom=connectivity
 ---------------------------------
 1/18=20,19=15,38=1,57=2/1,3;
 2/9=110,12=2,17=6,18=5,40=1/2;
 3/6=3,11=9,16=1,25=1,30=1,71=1/1,2,3;
 4//1;
 5/5=2,38=5/2;
 6/7=2,8=2,9=2,10=2,28=1/1;
 7//1,2,3,16;
 1/18=20,19=15/3(2);
 2/9=110/2;
 99//99;
 2/9=110/2;
 3/6=3,11=9,16=1,25=1,30=1,71=1/1,2,3;
 4/5=5,16=3,69=1/1;
 5/5=2,38=5/2;
 7//1,2,3,16;
 1/18=20,19=15/3(-5);
 2/9=110/2;
 6/7=2,8=2,9=2,10=2,19=2,28=1/1;
 99/9=1/99;
 -------------------
 Title Card Required
 -------------------
 Symbolic Z-matrix:
 Charge =  0 Multiplicity = 1
 H                    -0.45415   0.03387  -0.01417 
 H                    -1.70314  -0.75836   0.33326 
 H                     1.68575   0.0108   -0.84617 
 H                     1.68105   0.66097   0.53058 
 S                    -1.43986   0.11332  -0.0504 
 S                     1.28867  -0.10673   0.04996 
 
 Add virtual bond connecting atoms S6         and H1         Dist= 3.31D+00.

 GradGradGradGradGradGradGradGradGradGradGradGradGradGradGradGradGradGrad
 Berny optimization.
 Initialization pass.
                           ----------------------------
                           !    Initial Parameters    !
                           ! (Angstroms and Degrees)  !
 --------------------------                            --------------------------
 ! Name  Definition              Value          Derivative Info.                !
 --------------------------------------------------------------------------------
 ! R1    R(1,5)                  0.9896         estimate D2E/DX2                !
 ! R2    R(1,6)                  1.7497         estimate D2E/DX2                !
 ! R3    R(2,5)                  0.9881         estimate D2E/DX2                !
 ! R4    R(3,6)                  0.9872         estimate D2E/DX2                !
 ! R5    R(4,6)                  0.9871         estimate D2E/DX2                !
 ! A1    A(1,5,2)              100.3916         estimate D2E/DX2                !
 ! A2    A(1,6,3)              110.9666         estimate D2E/DX2                !
 ! A3    A(1,6,4)              110.5681         estimate D2E/DX2                !
 ! A4    A(3,6,4)              100.924          estimate D2E/DX2                !
 ! A5    L(5,1,6,2,-1)         179.9954         estimate D2E/DX2                !
 ! A6    L(5,1,6,2,-2)         180.0009         estimate D2E/DX2                !
 ! D1    D(1,3,6,5)              0.0014         estimate D2E/DX2                !
 ! D2    D(2,5,6,3)            122.9928         estimate D2E/DX2                !
 ! D3    D(2,5,6,4)           -125.8721         estimate D2E/DX2                !
 --------------------------------------------------------------------------------
 Trust Radius=3.00D-01 FncErr=1.00D-07 GrdErr=1.00D-07
 Number of steps in this run=     24 maximum allowed number of steps=    100.
 GradGradGradGradGradGradGradGradGradGradGradGradGradGradGradGradGradGrad

                          Input orientation:                          
 ---------------------------------------------------------------------
 Center     Atomic      Atomic             Coordinates (Angstroms)
 Number     Number       Type             X           Y           Z
 ---------------------------------------------------------------------
      1          1           0       -0.454148    0.033867   -0.014169
      2          1           0       -1.703140   -0.758358    0.333256
      3          1           0        1.685750    0.010799   -0.846170
      4          1           0        1.681049    0.660970    0.530575
      5         16           0       -1.439856    0.113316   -0.050401
      6         16           0        1.288667   -0.106726    0.049964
 ---------------------------------------------------------------------
                    Distance matrix (angstroms):
                    1          2          3          4          5
     1  H    0.000000
     2  H    1.519311   0.000000
     3  H    2.296066   3.669771   0.000000
     4  H    2.291085   3.675073   1.522554   0.000000
     5  S    0.989568   0.988092   3.226944   3.221414   0.000000
     6  S    1.749652   3.075026   0.987189   0.987070   2.739221
                    6
     6  S    0.000000
 Stoichiometry    H4S2
 Framework group  C1[X(H4S2)]
 Deg. of freedom    12
 Full point group                 C1      NOp   1
 Largest Abelian subgroup         C1      NOp   1
 Largest concise Abelian subgroup C1      NOp   1
                         Standard orientation:                         
 ---------------------------------------------------------------------
 Center     Atomic      Atomic             Coordinates (Angstroms)
 Number     Number       Type             X           Y           Z
 ---------------------------------------------------------------------
      1          1           0       -0.421614   -0.018690    0.001755
      2          1           0       -1.635638    0.888918   -0.101680
      3          1           0        1.703901   -0.326165    0.813891
      4          1           0        1.698372   -0.539407   -0.693646
      5         16           0       -1.409993   -0.066799    0.007935
      6         16           0        1.325929    0.066508   -0.009205
 ---------------------------------------------------------------------
 Rotational constants (GHZ):    195.7259191      3.8968828      3.8893945
 Standard basis: STO-3G (5D, 7F)
 There are    22 symmetry adapted cartesian basis functions of A   symmetry.
 There are    22 symmetry adapted basis functions of A   symmetry.
    22 basis functions,    66 primitive gaussians,    22 cartesian basis functions
    18 alpha electrons       18 beta electrons
       nuclear repulsion energy        98.0250216899 Hartrees.



 Warning!  S  atom    5 may be hypervalent but has no d functions.
 Warning!  S  atom    6 may be hypervalent but has no d functions.



 NAtoms=    6 NActive=    6 NUniq=    6 SFac= 1.00D+00 NAtFMM=   60 NAOKFM=F Big=F
 Integral buffers will be    131072 words long.
 Raffenetti 1 integral format.
 Two-electron integral symmetry is turned on.
 One-electron integrals computed using PRISM.
 NBasis=    22 RedAO= T EigKep=  1.26D-01  NBF=    22
 NBsUse=    22 1.00D-06 EigRej= -1.00D+00 NBFU=    22
 ExpMin= 1.69D-01 ExpMax= 5.33D+02 ExpMxC= 5.33D+02 IAcc=1 IRadAn=         1 AccDes= 0.00D+00
 Harris functional with IExCor=  205 and IRadAn=       1 diagonalized for initial guess.
 HarFok:  IExCor=  205 AccDes= 0.00D+00 IRadAn=         1 IDoV= 1 UseB2=F ITyADJ=14
 ICtDFT=  3500011 ScaDFX=  1.000000  1.000000  1.000000  1.000000
 FoFCou: FMM=F IPFlag=           0 FMFlag=      100000 FMFlg1=           0
         NFxFlg=           0 DoJE=T BraDBF=F KetDBF=T FulRan=T
         wScrn=  0.000000 ICntrl=     500 IOpCl=  0 I1Cent=   200000004 NGrid=           0
         NMat0=    1 NMatS0=      1 NMatT0=    0 NMatD0=    1 NMtDS0=    0 NMtDT0=    0
 Petite list used in FoFCou.
 Keep R1 ints in memory in canonical form, NReq=860456.
 Requested convergence on RMS density matrix=1.00D-08 within 128 cycles.
 Requested convergence on MAX density matrix=1.00D-06.
 Requested convergence on             energy=1.00D-06.
 No special actions if energy rises.
 SCF Done:  E(RHF) =  -787.982246088     A.U. after    8 cycles
            NFock=  8  Conv=0.23D-08     -V/T= 2.0082

 **********************************************************************

            Population analysis using the SCF density.

 **********************************************************************

 Orbital symmetries:
       Occupied  (A) (A) (A) (A) (A) (A) (A) (A) (A) (A) (A) (A)
                 (A) (A) (A) (A) (A) (A)
       Virtual   (A) (A) (A) (A)
 The electronic state is 1-A.
 Alpha  occ. eigenvalues --  -90.80059 -90.68496  -8.72478  -8.61916  -6.36170
 Alpha  occ. eigenvalues --   -6.35466  -6.34634  -6.25630  -6.24893  -6.24061
 Alpha  occ. eigenvalues --   -1.07662  -1.00099  -0.68808  -0.65550  -0.44255
 Alpha  occ. eigenvalues --   -0.37375  -0.29372  -0.27146
 Alpha virt. eigenvalues --    0.67304   0.77108   0.83302   1.01136
          Condensed to atoms (all electrons):
               1          2          3          4          5          6
     1  H    0.771618  -0.058456  -0.002263  -0.002361   0.330763  -0.020556
     2  H   -0.058456   0.828037   0.000009   0.000013   0.293174   0.002808
     3  H   -0.002263   0.000009   0.784238  -0.058095   0.001370   0.308377
     4  H   -0.002361   0.000013  -0.058095   0.784124   0.001363   0.308549
     5  S    0.330763   0.293174   0.001370   0.001363  15.457181  -0.093423
     6  S   -0.020556   0.002808   0.308377   0.308549  -0.093423  15.352260
 Mulliken charges:
               1
     1  H   -0.018745
     2  H   -0.065584
     3  H   -0.033636
     4  H   -0.033592
     5  S    0.009572
     6  S    0.141985
 Sum of Mulliken charges =   0.00000
 Mulliken charges with hydrogens summed into heavy atoms:
               1
     5  S   -0.074757
     6  S    0.074757
 Electronic spatial extent (au):  <R**2>=            309.4882
 Charge=              0.0000 electrons
 Dipole moment (field-independent basis, Debye):
    X=              2.5069    Y=             -0.0635    Z=              0.0301  Tot=              2.5079
 Quadrupole moment (field-independent basis, Debye-Ang):
   XX=            -25.7330   YY=            -24.7589   ZZ=            -24.4369
   XY=             -3.3850   XZ=              0.4338   YZ=              0.0696
 Traceless Quadrupole moment (field-independent basis, Debye-Ang):
   XX=             -0.7567   YY=              0.2173   ZZ=              0.5394
   XY=             -3.3850   XZ=              0.4338   YZ=              0.0696
 Octapole moment (field-independent basis, Debye-Ang**2):
  XXX=              7.8809  YYY=             -0.6418  ZZZ=             -0.1741  XYY=             -0.0834
  XXY=              0.2880  XXZ=              0.0431  XZZ=              2.0947  YZZ=              0.4227
  YYZ=              0.2018  XYZ=              0.2924
 Hexadecapole moment (field-independent basis, Debye-Ang**3):
 XXXX=           -304.5319 YYYY=            -27.9053 ZZZZ=            -26.7162 XXXY=             -9.6395
 XXXZ=              1.2288 YYYX=             -0.1360 YYYZ=              0.0451 ZZZX=             -0.0506
 ZZZY=              0.0263 XXYY=            -56.8184 XXZZ=            -55.9404 YYZZ=             -9.0804
 XXYZ=              0.1415 YYXZ=              0.0679 ZZXY=              0.0642
 N-N= 9.802502168991D+01 E-N=-2.070705325271D+03  KE= 7.815721462703D+02
 Calling FoFJK, ICntrl=      2127 FMM=F ISym2X=0 I1Cent= 0 IOpClX= 0 NMat=1 NMatS=1 NMatT=0.
 ***** Axes restored to original set *****
 -------------------------------------------------------------------
 Center     Atomic                   Forces (Hartrees/Bohr)
 Number     Number              X              Y              Z
 -------------------------------------------------------------------
      1        1           0.515881359   -0.050295581    0.022758923
      2        1          -0.145107971   -0.512891457    0.225776078
      3        1           0.243478997    0.080683217   -0.529661937
      4        1           0.240756626    0.461282603    0.275693956
      5       16          -0.491617324    0.572768538   -0.252867117
      6       16          -0.363391686   -0.551547320    0.258300097
 -------------------------------------------------------------------
 Cartesian Forces:  Max     0.572768538 RMS     0.367727722

 GradGradGradGradGradGradGradGradGradGradGradGradGradGradGradGradGradGrad
 Berny optimization.
 FormGI is forming the generalized inverse of G from B-inverse, IUseBI=4.
 Internal  Forces:  Max     0.640040780 RMS     0.322136950
 Search for a local minimum.
 Step number   1 out of a maximum of   24
 All quantities printed in internal units (Hartrees-Bohrs-Radians)
 Mixed Optimization -- RFO/linear search
 Second derivative matrix not updated -- first step.
 The second derivative matrix:
                          R1        R2        R3        R4        R5
           R1           0.97877
           R2           0.00000   0.09356
           R3           0.00000   0.00000   0.98557
           R4           0.00000   0.00000   0.00000   0.98976
           R5           0.00000   0.00000   0.00000   0.00000   0.99031
           A1           0.00000   0.00000   0.00000   0.00000   0.00000
           A2           0.00000   0.00000   0.00000   0.00000   0.00000
           A3           0.00000   0.00000   0.00000   0.00000   0.00000
           A4           0.00000   0.00000   0.00000   0.00000   0.00000
           A5           0.00000   0.00000   0.00000   0.00000   0.00000
           A6           0.00000   0.00000   0.00000   0.00000   0.00000
           D1           0.00000   0.00000   0.00000   0.00000   0.00000
           D2           0.00000   0.00000   0.00000   0.00000   0.00000
           D3           0.00000   0.00000   0.00000   0.00000   0.00000
                          A1        A2        A3        A4        A5
           A1           0.16000
           A2           0.00000   0.16000
           A3           0.00000   0.00000   0.16000
           A4           0.00000   0.00000   0.00000   0.16000
           A5           0.00000   0.00000   0.00000   0.00000   0.00230
           A6           0.00000   0.00000   0.00000   0.00000   0.00000
           D1           0.00000   0.00000   0.00000   0.00000   0.00000
           D2           0.00000   0.00000   0.00000   0.00000   0.00000
           D3           0.00000   0.00000   0.00000   0.00000   0.00000
                          A6        D1        D2        D3
           A6           0.00230
           D1           0.00000   0.05168
           D2           0.00000   0.00000   0.00230
           D3           0.00000   0.00000   0.00000   0.00230
 ITU=  0
     Eigenvalues ---    0.00230   0.00230   0.00762   0.08091   0.09356
     Eigenvalues ---    0.16000   0.16000   0.16000   0.97877   0.98557
     Eigenvalues ---    0.98976   0.99031
 RFO step:  Lambda=-8.15102898D-01 EMin= 2.30000000D-03
 Linear search not attempted -- first point.
 Maximum step size (   0.300) exceeded in Quadratic search.
    -- Step size scaled by   0.442
 Iteration  1 RMS(Cart)=  0.09797072 RMS(Int)=  0.00030293
 Iteration  2 RMS(Cart)=  0.00026902 RMS(Int)=  0.00000261
 Iteration  3 RMS(Cart)=  0.00000008 RMS(Int)=  0.00000261
 Variable       Old X    -DE/DX   Delta X   Delta X   Delta X     New X
                                 (Linear)    (Quad)   (Total)
    R1        1.87001   0.64004   0.00000   0.15753   0.15753   2.02754
    R2        3.30636   0.12130   0.00000   0.05894   0.05894   3.36530
    R3        1.86722   0.57879   0.00000   0.14191   0.14191   2.00914
    R4        1.86552   0.58835   0.00000   0.14392   0.14392   2.00944
    R5        1.86529   0.58871   0.00000   0.14397   0.14397   2.00926
    A1        1.75216  -0.01766   0.00000  -0.00800  -0.00800   1.74417
    A2        1.93673   0.00482   0.00000   0.00203   0.00203   1.93876
    A3        1.92978   0.00456   0.00000   0.00191   0.00191   1.93169
    A4        1.76146  -0.01614   0.00000  -0.00764  -0.00764   1.75381
    A5        3.14151  -0.00170   0.00000  -0.00084  -0.00084   3.14067
    A6        3.14161   0.00018   0.00000   0.00009   0.00010   3.14170
    D1        0.00002   0.00053   0.00000   0.00026   0.00027   0.00030
    D2        2.14663   0.00695   0.00000   0.00342   0.00342   2.15005
    D3       -2.19688  -0.00692   0.00000  -0.00341  -0.00340  -2.20029
         Item               Value     Threshold  Converged?
 Maximum Force            0.640041     0.000450     NO 
 RMS     Force            0.322137     0.000300     NO 
 Maximum Displacement     0.185760     0.001800     NO 
 RMS     Displacement     0.097929     0.001200     NO 
 Predicted change in Energy=-3.171206D-01
 GradGradGradGradGradGradGradGradGradGradGradGradGradGradGradGradGradGrad

                          Input orientation:                          
 ---------------------------------------------------------------------
 Center     Atomic      Atomic             Coordinates (Angstroms)
 Number     Number       Type             X           Y           Z
 ---------------------------------------------------------------------
      1          1           0       -0.450654    0.037254   -0.015408
      2          1           0       -1.801439   -0.807365    0.354871
      3          1           0        1.756104    0.007190   -0.906355
      4          1           0        1.751114    0.705382    0.571908
      5         16           0       -1.518657    0.130703   -0.057969
      6         16           0        1.321855   -0.119295    0.056009
 ---------------------------------------------------------------------
                    Distance matrix (angstroms):
                    1          2          3          4          5
     1  H    0.000000
     2  H    1.635576   0.000000
     3  H    2.380015   3.861386   0.000000
     4  H    2.374683   3.867318   1.634857   0.000000
     5  S    1.072928   1.063190   3.385125   3.379113   0.000000
     6  S    1.780841   3.212122   1.063350   1.063254   2.853769
                    6
     6  S    0.000000
 Stoichiometry    H4S2
 Framework group  C1[X(H4S2)]
 Deg. of freedom    12
 Full point group                 C1      NOp   1
 Largest Abelian subgroup         C1      NOp   1
 Largest concise Abelian subgroup C1      NOp   1
                         Standard orientation:                         
 ---------------------------------------------------------------------
 Center     Atomic      Atomic             Coordinates (Angstroms)
 Number     Number       Type             X           Y           Z
 ---------------------------------------------------------------------
      1          1           0       -0.399311   -0.018689    0.001598
      2          1           0       -1.706908    0.958294   -0.102341
      3          1           0        1.789695   -0.359127    0.871555
      4          1           0        1.783651   -0.576040   -0.748837
      5         16           0       -1.470871   -0.072467    0.008068
      6         16           0        1.379176    0.072190   -0.009441
 ---------------------------------------------------------------------
 Rotational constants (GHZ):    168.8868987      3.5865677      3.5788701
 Standard basis: STO-3G (5D, 7F)
 There are    22 symmetry adapted cartesian basis functions of A   symmetry.
 There are    22 symmetry adapted basis functions of A   symmetry.
    22 basis functions,    66 primitive gaussians,    22 cartesian basis functions
    18 alpha electrons       18 beta electrons
       nuclear repulsion energy        93.0142449927 Hartrees.



 Warning!  S  atom    5 may be hypervalent but has no d functions.
 Warning!  S  atom    6 may be hypervalent but has no d functions.



 NAtoms=    6 NActive=    6 NUniq=    6 SFac= 1.00D+00 NAtFMM=   60 NAOKFM=F Big=F
 Integral buffers will be    131072 words long.
 Raffenetti 1 integral format.
 Two-electron integral symmetry is turned on.
 One-electron integrals computed using PRISM.
 NBasis=    22 RedAO= T EigKep=  1.63D-01  NBF=    22
 NBsUse=    22 1.00D-06 EigRej= -1.00D+00 NBFU=    22
 Initial guess from the checkpoint file:  "hydrogen_sulphide_dimer.chk"
 B after Tr=     0.000000    0.000000    0.000000
         Rot=    0.999993   -0.003739   -0.000033   -0.000223 Ang=  -0.43 deg.
 ExpMin= 1.69D-01 ExpMax= 5.33D+02 ExpMxC= 5.33D+02 IAcc=1 IRadAn=         1 AccDes= 0.00D+00
 Harris functional with IExCor=  205 and IRadAn=       1 diagonalized for initial guess.
 HarFok:  IExCor=  205 AccDes= 0.00D+00 IRadAn=         1 IDoV= 1 UseB2=F ITyADJ=14
 ICtDFT=  3500011 ScaDFX=  1.000000  1.000000  1.000000  1.000000
 FoFCou: FMM=F IPFlag=           0 FMFlag=      100000 FMFlg1=           0
         NFxFlg=           0 DoJE=T BraDBF=F KetDBF=T FulRan=T
         wScrn=  0.000000 ICntrl=     500 IOpCl=  0 I1Cent=   200000004 NGrid=           0
         NMat0=    1 NMatS0=      1 NMatT0=    0 NMatD0=    1 NMtDS0=    0 NMtDT0=    0
 Petite list used in FoFCou.
 Keep R1 ints in memory in canonical form, NReq=860414.
 Requested convergence on RMS density matrix=1.00D-08 within 128 cycles.
 Requested convergence on MAX density matrix=1.00D-06.
 Requested convergence on             energy=1.00D-06.
 No special actions if energy rises.
 SCF Done:  E(RHF) =  -788.273315819     A.U. after    7 cycles
            NFock=  7  Conv=0.70D-08     -V/T= 2.0095
 Calling FoFJK, ICntrl=      2127 FMM=F ISym2X=0 I1Cent= 0 IOpClX= 0 NMat=1 NMatS=1 NMatT=0.
 ***** Axes restored to original set *****
 -------------------------------------------------------------------
 Center     Atomic                   Forces (Hartrees/Bohr)
 Number     Number              X              Y              Z
 -------------------------------------------------------------------
      1        1           0.301618285   -0.035869153    0.016136399
      2        1          -0.087922707   -0.328355564    0.144537213
      3        1           0.159800314    0.055835430   -0.334539724
      4        1           0.158098084    0.294447974    0.170359321
      5       16          -0.309810454    0.372790174   -0.164565432
      6       16          -0.221783522   -0.358848862    0.168072223
 -------------------------------------------------------------------
 Cartesian Forces:  Max     0.372790174 RMS     0.233153782

 GradGradGradGradGradGradGradGradGradGradGradGradGradGradGradGradGradGrad
 Berny optimization.
 Using GEDIIS/GDIIS optimizer.
 FormGI is forming the generalized inverse of G from B-inverse, IUseBI=4.
 Internal  Forces:  Max     0.400572544 RMS     0.204934791
 Search for a local minimum.
 Step number   2 out of a maximum of   24
 All quantities printed in internal units (Hartrees-Bohrs-Radians)
 Mixed Optimization -- RFO/linear search
 Update second derivatives using D2CorX and points    1    2
 DE= -2.91D-01 DEPred=-3.17D-01 R= 9.18D-01
 TightC=F SS=  1.41D+00  RLast= 3.00D-01 DXNew= 5.0454D-01 9.0012D-01
 Trust test= 9.18D-01 RLast= 3.00D-01 DXMaxT set to 5.05D-01
 The second derivative matrix:
                          R1        R2        R3        R4        R5
           R1           1.14050
           R2           0.03546   0.09789
           R3           0.13264   0.03072   1.09358
           R4           0.13553   0.03133   0.11039   1.10258
           R5           0.13561   0.03135   0.11045   0.11288   1.10325
           A1           0.00923   0.00080   0.00815   0.00831   0.00832
           A2          -0.00014   0.00003  -0.00014  -0.00014  -0.00014
           A3          -0.00029   0.00001  -0.00027  -0.00028  -0.00028
           A4           0.00577   0.00045   0.00512   0.00522   0.00522
           A5           0.00045   0.00005   0.00040   0.00041   0.00041
           A6          -0.00002   0.00000  -0.00002  -0.00002  -0.00002
           D1          -0.00026  -0.00002  -0.00023  -0.00023  -0.00023
           D2          -0.00227  -0.00023  -0.00199  -0.00203  -0.00203
           D3           0.00229   0.00024   0.00200   0.00204   0.00204
                          A1        A2        A3        A4        A5
           A1           0.16009
           A2           0.00001   0.16000
           A3           0.00001   0.00000   0.16000
           A4           0.00004   0.00001   0.00001   0.16001
           A5           0.00001   0.00000   0.00000   0.00000   0.00230
           A6           0.00000   0.00000   0.00000   0.00000   0.00000
           D1           0.00000   0.00000   0.00000   0.00000   0.00000
           D2          -0.00004   0.00000   0.00000  -0.00002   0.00000
           D3           0.00004   0.00000   0.00000   0.00002   0.00000
                          A6        D1        D2        D3
           A6           0.00230
           D1           0.00000   0.05168
           D2           0.00000   0.00000   0.00231
           D3           0.00000   0.00000  -0.00001   0.00231
 ITU=  1  0
 Use linear search instead of GDIIS.
 Linear search step of   0.600 exceeds DXMaxT=   0.505 but not scaled.
 Quartic linear search produced a step of  2.00000.
 Iteration  1 RMS(Cart)=  0.13950034 RMS(Int)=  0.05049376
 Iteration  2 RMS(Cart)=  0.05680247 RMS(Int)=  0.00008507
 Iteration  3 RMS(Cart)=  0.00008418 RMS(Int)=  0.00001351
 Iteration  4 RMS(Cart)=  0.00000001 RMS(Int)=  0.00001351
 Variable       Old X    -DE/DX   Delta X   Delta X   Delta X     New X
                                 (Linear)    (Quad)   (Total)
    R1        2.02754   0.40057   0.31506   0.00000   0.31506   2.34260
    R2        3.36530   0.09657   0.11788   0.00000   0.11788   3.48318
    R3        2.00914   0.36922   0.28383   0.00000   0.28383   2.29297
    R4        2.00944   0.37467   0.28785   0.00000   0.28785   2.29729
    R5        2.00926   0.37487   0.28793   0.00000   0.28793   2.29719
    A1        1.74417  -0.02143  -0.01599   0.00000  -0.01599   1.72818
    A2        1.93876   0.00457   0.00406   0.00000   0.00405   1.94281
    A3        1.93169   0.00442   0.00382   0.00000   0.00382   1.93551
    A4        1.75381  -0.01809  -0.01529   0.00000  -0.01529   1.73852
    A5        3.14067  -0.00194  -0.00168   0.00000  -0.00167   3.13901
    A6        3.14170   0.00019   0.00019   0.00000   0.00020   3.14190
    D1        0.00030   0.00066   0.00054   0.00000   0.00059   0.00088
    D2        2.15005   0.00818   0.00685   0.00000   0.00684   2.15689
    D3       -2.20029  -0.00815  -0.00681   0.00000  -0.00680  -2.20709
         Item               Value     Threshold  Converged?
 Maximum Force            0.400573     0.000450     NO 
 RMS     Force            0.204935     0.000300     NO 
 Maximum Displacement     0.368955     0.001800     NO 
 RMS     Displacement     0.195469     0.001200     NO 
 Predicted change in Energy=-1.981207D-01
 GradGradGradGradGradGradGradGradGradGradGradGradGradGradGradGradGradGrad

                          Input orientation:                          
 ---------------------------------------------------------------------
 Center     Atomic      Atomic             Coordinates (Angstroms)
 Number     Number       Type             X           Y           Z
 ---------------------------------------------------------------------
      1          1           0       -0.444648    0.042977   -0.017418
      2          1           0       -1.996682   -0.905245    0.398038
      3          1           0        1.897544    0.000538   -1.025710
      4          1           0        1.891962    0.793790    0.653490
      5         16           0       -1.676895    0.166115   -0.073373
      6         16           0        1.387040   -0.144306    0.068029
 ---------------------------------------------------------------------
                    Distance matrix (angstroms):
                    1          2          3          4          5
     1  H    0.000000
     2  H    1.865621   0.000000
     3  H    2.550356   4.244114   0.000000
     4  H    2.544324   4.251298   1.857146   0.000000
     5  S    1.239648   1.213386   3.702834   3.695815   0.000000
     6  S    1.843219   3.483893   1.215672   1.215622   3.082865
                    6
     6  S    0.000000
 Stoichiometry    H4S2
 Framework group  C1[X(H4S2)]
 Deg. of freedom    12
 Full point group                 C1      NOp   1
 Largest Abelian subgroup         C1      NOp   1
 Largest concise Abelian subgroup C1      NOp   1
                         Standard orientation:                         
 ---------------------------------------------------------------------
 Center     Atomic      Atomic             Coordinates (Angstroms)
 Number     Number       Type             X           Y           Z
 ---------------------------------------------------------------------
      1          1           0       -0.354868   -0.018405    0.001306
      2          1           0       -1.846320    1.097524   -0.102690
      3          1           0        1.962381   -0.426526    0.985232
      4          1           0        1.955244   -0.649002   -0.858527
      5         16           0       -1.592767   -0.083878    0.008249
      6         16           0        1.485490    0.083653   -0.009832
 ---------------------------------------------------------------------
 Rotational constants (GHZ):    129.4924074      3.0674264      3.0594056
 Standard basis: STO-3G (5D, 7F)
 There are    22 symmetry adapted cartesian basis functions of A   symmetry.
 There are    22 symmetry adapted basis functions of A   symmetry.
    22 basis functions,    66 primitive gaussians,    22 cartesian basis functions
    18 alpha electrons       18 beta electrons
       nuclear repulsion energy        84.5148469891 Hartrees.



 Warning!  S  atom    5 may be hypervalent but has no d functions.
 Warning!  S  atom    6 may be hypervalent but has no d functions.



 NAtoms=    6 NActive=    6 NUniq=    6 SFac= 1.00D+00 NAtFMM=   60 NAOKFM=F Big=F
 Integral buffers will be    131072 words long.
 Raffenetti 1 integral format.
 Two-electron integral symmetry is turned on.
 One-electron integrals computed using PRISM.
 NBasis=    22 RedAO= T EigKep=  2.45D-01  NBF=    22
 NBsUse=    22 1.00D-06 EigRej= -1.00D+00 NBFU=    22
 Initial guess from the checkpoint file:  "hydrogen_sulphide_dimer.chk"
 B after Tr=     0.000000    0.000000    0.000000
         Rot=    0.999979   -0.006528   -0.000054   -0.000389 Ang=  -0.75 deg.
 ExpMin= 1.69D-01 ExpMax= 5.33D+02 ExpMxC= 5.33D+02 IAcc=1 IRadAn=         1 AccDes= 0.00D+00
 Harris functional with IExCor=  205 and IRadAn=       1 diagonalized for initial guess.
 HarFok:  IExCor=  205 AccDes= 0.00D+00 IRadAn=         1 IDoV= 1 UseB2=F ITyADJ=14
 ICtDFT=  3500011 ScaDFX=  1.000000  1.000000  1.000000  1.000000
 FoFCou: FMM=F IPFlag=           0 FMFlag=      100000 FMFlg1=           0
         NFxFlg=           0 DoJE=T BraDBF=F KetDBF=T FulRan=T
         wScrn=  0.000000 ICntrl=     500 IOpCl=  0 I1Cent=   200000004 NGrid=           0
         NMat0=    1 NMatS0=      1 NMatT0=    0 NMatD0=    1 NMtDS0=    0 NMtDT0=    0
 Petite list used in FoFCou.
 Keep R1 ints in memory in canonical form, NReq=860262.
 Requested convergence on RMS density matrix=1.00D-08 within 128 cycles.
 Requested convergence on MAX density matrix=1.00D-06.
 Requested convergence on             energy=1.00D-06.
 No special actions if energy rises.
 SCF Done:  E(RHF) =  -788.553916191     A.U. after    9 cycles
            NFock=  9  Conv=0.22D-08     -V/T= 2.0111
 Calling FoFJK, ICntrl=      2127 FMM=F ISym2X=0 I1Cent= 0 IOpClX= 0 NMat=1 NMatS=1 NMatT=0.
 ***** Axes restored to original set *****
 -------------------------------------------------------------------
 Center     Atomic                   Forces (Hartrees/Bohr)
 Number     Number              X              Y              Z
 -------------------------------------------------------------------
      1        1           0.052502262   -0.013865064    0.006100157
      2        1          -0.018584955   -0.098757950    0.043477752
      3        1           0.051777563    0.023654365   -0.094664807
      4        1           0.051310098    0.088309870    0.042158252
      5       16          -0.092839591    0.119272201   -0.052627623
      6       16          -0.044165377   -0.118613422    0.055556269
 -------------------------------------------------------------------
 Cartesian Forces:  Max     0.119272201 RMS     0.068356205

 GradGradGradGradGradGradGradGradGradGradGradGradGradGradGradGradGradGrad
 Berny optimization.
 Using GEDIIS/GDIIS optimizer.
 FormGI is forming the generalized inverse of G from B-inverse, IUseBI=4.
 Internal  Forces:  Max     0.113211445 RMS     0.061783376
 Search for a local minimum.
 Step number   3 out of a maximum of   24
 All quantities printed in internal units (Hartrees-Bohrs-Radians)
 Mixed Optimization -- RFO/linear search
 Update second derivatives using D2CorX and points    2    3
 The second derivative matrix:
                          R1        R2        R3        R4        R5
           R1           0.95776
           R2           0.02333   0.09751
           R3          -0.01946   0.02111   0.96756
           R4          -0.01991   0.02149  -0.01843   0.97091
           R5          -0.01998   0.02150  -0.01849  -0.01892   0.97132
           A1           0.00470   0.00039   0.00426   0.00433   0.00434
           A2           0.00060   0.00013   0.00054   0.00055   0.00055
           A3           0.00051   0.00012   0.00046   0.00047   0.00047
           A4           0.00283   0.00016   0.00257   0.00261   0.00262
           A5           0.00035   0.00004   0.00032   0.00032   0.00032
           A6          -0.00001   0.00000  -0.00001  -0.00001  -0.00001
           D1          -0.00017  -0.00002  -0.00015  -0.00016  -0.00016
           D2          -0.00096  -0.00012  -0.00087  -0.00089  -0.00089
           D3           0.00097   0.00012   0.00088   0.00089   0.00089
                          A1        A2        A3        A4        A5
           A1           0.16000
           A2           0.00002   0.16000
           A3           0.00001   0.00000   0.16000
           A4          -0.00001   0.00001   0.00001   0.15998
           A5           0.00000   0.00000   0.00000   0.00000   0.00230
           A6           0.00000   0.00000   0.00000   0.00000   0.00000
           D1           0.00000   0.00000   0.00000   0.00000   0.00000
           D2          -0.00001   0.00000   0.00000   0.00000   0.00000
           D3           0.00001   0.00000   0.00000   0.00000   0.00000
                          A6        D1        D2        D3
           A6           0.00230
           D1           0.00000   0.05168
           D2           0.00000   0.00000   0.00230
           D3           0.00000   0.00000   0.00000   0.00230
 ITU=  0  1  0
 Use linear search instead of GDIIS.
 Linear search step of   0.551 exceeds DXMaxT=   0.505 but not scaled.
 Quartic linear search produced a step of  0.91795.
 Iteration  1 RMS(Cart)=  0.13693815 RMS(Int)=  0.03767634
 Iteration  2 RMS(Cart)=  0.04261837 RMS(Int)=  0.00003834
 Iteration  3 RMS(Cart)=  0.00003765 RMS(Int)=  0.00001251
 Iteration  4 RMS(Cart)=  0.00000000 RMS(Int)=  0.00001251
 Variable       Old X    -DE/DX   Delta X   Delta X   Delta X     New X
                                 (Linear)    (Quad)   (Total)
    R1        2.34260   0.11321   0.28921   0.00000   0.28921   2.63180
    R2        3.48318   0.05937   0.10821   0.00000   0.10821   3.59138
    R3        2.29297   0.10899   0.26054   0.00000   0.26054   2.55351
    R4        2.29729   0.10973   0.26423   0.00000   0.26423   2.56152
    R5        2.29719   0.10977   0.26431   0.00000   0.26431   2.56150
    A1        1.72818  -0.02410  -0.01468   0.00000  -0.01468   1.71350
    A2        1.94281   0.00325   0.00372   0.00000   0.00372   1.94653
    A3        1.93551   0.00323   0.00351   0.00000   0.00350   1.93901
    A4        1.73852  -0.01879  -0.01404   0.00000  -0.01405   1.72447
    A5        3.13901  -0.00233  -0.00153   0.00000  -0.00151   3.13749
    A6        3.14190   0.00021   0.00018   0.00000   0.00019   3.14209
    D1        0.00088   0.00082   0.00054   0.00000   0.00058   0.00146
    D2        2.15689   0.00924   0.00628   0.00000   0.00627   2.16317
    D3       -2.20709  -0.00922  -0.00625   0.00000  -0.00624  -2.21333
         Item               Value     Threshold  Converged?
 Maximum Force            0.113211     0.000450     NO 
 RMS     Force            0.061783     0.000300     NO 
 Maximum Displacement     0.335392     0.001800     NO 
 RMS     Displacement     0.178936     0.001200     NO 
 Predicted change in Energy=-9.047932D-03
 GradGradGradGradGradGradGradGradGradGradGradGradGradGradGradGradGradGrad

                          Input orientation:                          
 ---------------------------------------------------------------------
 Center     Atomic      Atomic             Coordinates (Angstroms)
 Number     Number       Type             X           Y           Z
 ---------------------------------------------------------------------
      1          1           0       -0.440299    0.047238   -0.018824
      2          1           0       -2.174164   -0.994951    0.437598
      3          1           0        2.028178   -0.004967   -1.134038
      4          1           0        2.022033    0.874379    0.727124
      5         16           0       -1.822930    0.199392   -0.087835
      6         16           0        1.445504   -0.167223    0.079030
 ---------------------------------------------------------------------
                    Distance matrix (angstroms):
                    1          2          3          4          5
     1  H    0.000000
     2  H    2.073829   0.000000
     3  H    2.709208   4.594539   0.000000
     4  H    2.702532   4.602857   2.058449   0.000000
     5  S    1.392689   1.351259   3.995915   3.987921   0.000000
     6  S    1.900479   3.730375   1.355497   1.355488   3.293161
                    6
     6  S    0.000000
 Stoichiometry    H4S2
 Framework group  C1[X(H4S2)]
 Deg. of freedom    12
 Full point group                 C1      NOp   1
 Largest Abelian subgroup         C1      NOp   1
 Largest concise Abelian subgroup C1      NOp   1
                         Standard orientation:                         
 ---------------------------------------------------------------------
 Center     Atomic      Atomic             Coordinates (Angstroms)
 Number     Number       Type             X           Y           Z
 ---------------------------------------------------------------------
      1          1           0       -0.314262   -0.017872    0.001071
      2          1           0       -1.970545    1.225838   -0.102269
      3          1           0        2.122159   -0.489769    1.087797
      4          1           0        2.113942   -0.715991   -0.958167
      5         16           0       -1.704828   -0.094412    0.008348
      6         16           0        1.582872    0.094274   -0.010125
 ---------------------------------------------------------------------
 Rotational constants (GHZ):    104.3498430      2.6839588      2.6757360
 Standard basis: STO-3G (5D, 7F)
 There are    22 symmetry adapted cartesian basis functions of A   symmetry.
 There are    22 symmetry adapted basis functions of A   symmetry.
    22 basis functions,    66 primitive gaussians,    22 cartesian basis functions
    18 alpha electrons       18 beta electrons
       nuclear repulsion energy        78.0749046144 Hartrees.
 NAtoms=    6 NActive=    6 NUniq=    6 SFac= 1.00D+00 NAtFMM=   60 NAOKFM=F Big=F
 Integral buffers will be    131072 words long.
 Raffenetti 1 integral format.
 Two-electron integral symmetry is turned on.
 One-electron integrals computed using PRISM.
 NBasis=    22 RedAO= T EigKep=  3.24D-01  NBF=    22
 NBsUse=    22 1.00D-06 EigRej= -1.00D+00 NBFU=    22
 Initial guess from the checkpoint file:  "hydrogen_sulphide_dimer.chk"
 B after Tr=     0.000000    0.000000    0.000000
         Rot=    0.999987   -0.005011   -0.000040   -0.000295 Ang=  -0.58 deg.
 ExpMin= 1.69D-01 ExpMax= 5.33D+02 ExpMxC= 5.33D+02 IAcc=1 IRadAn=         1 AccDes= 0.00D+00
 Harris functional with IExCor=  205 and IRadAn=       1 diagonalized for initial guess.
 HarFok:  IExCor=  205 AccDes= 0.00D+00 IRadAn=         1 IDoV= 1 UseB2=F ITyADJ=14
 ICtDFT=  3500011 ScaDFX=  1.000000  1.000000  1.000000  1.000000
 FoFCou: FMM=F IPFlag=           0 FMFlag=      100000 FMFlg1=           0
         NFxFlg=           0 DoJE=T BraDBF=F KetDBF=T FulRan=T
         wScrn=  0.000000 ICntrl=     500 IOpCl=  0 I1Cent=   200000004 NGrid=           0
         NMat0=    1 NMatS0=      1 NMatT0=    0 NMatD0=    1 NMtDS0=    0 NMtDT0=    0
 Petite list used in FoFCou.
 Keep R1 ints in memory in canonical form, NReq=860178.
 Requested convergence on RMS density matrix=1.00D-08 within 128 cycles.
 Requested convergence on MAX density matrix=1.00D-06.
 Requested convergence on             energy=1.00D-06.
 No special actions if energy rises.
 SCF Done:  E(RHF) =  -788.601866602     A.U. after    9 cycles
            NFock=  9  Conv=0.72D-08     -V/T= 2.0117
 Calling FoFJK, ICntrl=      2127 FMM=F ISym2X=0 I1Cent= 0 IOpClX= 0 NMat=1 NMatS=1 NMatT=0.
 ***** Axes restored to original set *****
 -------------------------------------------------------------------
 Center     Atomic                   Forces (Hartrees/Bohr)
 Number     Number              X              Y              Z
 -------------------------------------------------------------------
      1        1          -0.056673165   -0.000507340    0.000053192
      2        1           0.013256094    0.013521958   -0.005930903
      3        1          -0.003790462    0.006698780    0.020159510
      4        1          -0.003674522   -0.011353000   -0.017997781
      5       16           0.007852567   -0.007936598    0.003528461
      6       16           0.043029489   -0.000423800    0.000187522
 -------------------------------------------------------------------
 Cartesian Forces:  Max     0.056673165 RMS     0.019041862

 GradGradGradGradGradGradGradGradGradGradGradGradGradGradGradGradGradGrad
 Berny optimization.
 Using GEDIIS/GDIIS optimizer.
 FormGI is forming the generalized inverse of G from B-inverse, IUseBI=4.
 Internal  Forces:  Max     0.035982442 RMS     0.016315654
 Search for a local minimum.
 Step number   4 out of a maximum of   24
 All quantities printed in internal units (Hartrees-Bohrs-Radians)
 Mixed Optimization -- RFO/linear search
 Update second derivatives using D2CorX and points    3    4
 The second derivative matrix:
                          R1        R2        R3        R4        R5
           R1           0.82600
           R2           0.01201   0.09705
           R3          -0.13328   0.01182   0.86969
           R4          -0.13615   0.01197  -0.11840   0.86878
           R5          -0.13631   0.01197  -0.11855  -0.12113   0.86903
           A1           0.00117  -0.00012   0.00101   0.00103   0.00103
           A2           0.00085   0.00023   0.00083   0.00084   0.00084
           A3           0.00081   0.00022   0.00079   0.00080   0.00080
           A4           0.00070  -0.00018   0.00058   0.00059   0.00059
           A5           0.00012   0.00002   0.00012   0.00012   0.00012
           A6           0.00000   0.00000   0.00000   0.00000   0.00000
           D1          -0.00008  -0.00001  -0.00007  -0.00007  -0.00007
           D2           0.00014   0.00003   0.00013   0.00013   0.00013
           D3          -0.00013  -0.00003  -0.00013  -0.00013  -0.00013
                          A1        A2        A3        A4        A5
           A1           0.15999
           A2          -0.00001   0.16002
           A3          -0.00001   0.00001   0.16001
           A4           0.00000  -0.00001  -0.00001   0.16000
           A5           0.00000   0.00000   0.00000   0.00000   0.00230
           A6           0.00000   0.00000   0.00000   0.00000   0.00000
           D1           0.00000   0.00000   0.00000   0.00000   0.00000
           D2           0.00000   0.00000   0.00000   0.00000   0.00000
           D3           0.00000   0.00000   0.00000   0.00000   0.00000
                          A6        D1        D2        D3
           A6           0.00230
           D1           0.00000   0.05168
           D2           0.00000   0.00000   0.00230
           D3           0.00000   0.00000   0.00000   0.00230
 ITU=  0  0  1  0
 Use linear search instead of GDIIS.
     Eigenvalues ---    0.00230   0.00230   0.00926   0.08130   0.09555
     Eigenvalues ---    0.15997   0.16000   0.16004   0.47590   0.98184
     Eigenvalues ---    0.98726   0.99005
 RFO step:  Lambda=-1.95780146D-02 EMin= 2.29999963D-03
 Quartic linear search produced a step of -0.14904.
 Iteration  1 RMS(Cart)=  0.10250190 RMS(Int)=  0.03010664
 Iteration  2 RMS(Cart)=  0.03440943 RMS(Int)=  0.00066620
 Iteration  3 RMS(Cart)=  0.00010359 RMS(Int)=  0.00066257
 Iteration  4 RMS(Cart)=  0.00000010 RMS(Int)=  0.00066257
 Variable       Old X    -DE/DX   Delta X   Delta X   Delta X     New X
                                 (Linear)    (Quad)   (Total)
    R1        2.63180  -0.02023  -0.04310  -0.01836  -0.06146   2.57034
    R2        3.59138   0.03598  -0.01613   0.32843   0.31231   3.90369
    R3        2.55351  -0.01770  -0.03883  -0.01502  -0.05385   2.49966
    R4        2.56152  -0.01887  -0.03938  -0.01611  -0.05549   2.50603
    R5        2.56150  -0.01889  -0.03939  -0.01612  -0.05552   2.50598
    A1        1.71350  -0.02289   0.00219  -0.12641  -0.12423   1.58927
    A2        1.94653   0.00172  -0.00055  -0.01114  -0.01217   1.93436
    A3        1.93901   0.00178  -0.00052  -0.01109  -0.01210   1.92691
    A4        1.72447  -0.01718   0.00209  -0.14244  -0.14159   1.58288
    A5        3.13749  -0.00246   0.00023  -0.02698  -0.02693   3.11056
    A6        3.14209   0.00021  -0.00003   0.00686   0.00658   3.14867
    D1        0.00146   0.00087  -0.00009   0.00884   0.00744   0.00891
    D2        2.16317   0.00908  -0.00094   0.08866   0.08664   2.24981
    D3       -2.21333  -0.00907   0.00093  -0.08814  -0.08614  -2.29947
         Item               Value     Threshold  Converged?
 Maximum Force            0.035982     0.000450     NO 
 RMS     Force            0.016316     0.000300     NO 
 Maximum Displacement     0.223569     0.001800     NO 
 RMS     Displacement     0.114870     0.001200     NO 
 Predicted change in Energy=-1.252683D-02
 GradGradGradGradGradGradGradGradGradGradGradGradGradGradGradGradGradGrad

                          Input orientation:                          
 ---------------------------------------------------------------------
 Center     Atomic      Atomic             Coordinates (Angstroms)
 Number     Number       Type             X           Y           Z
 ---------------------------------------------------------------------
      1          1           0       -0.558606    0.062707   -0.028639
      2          1           0       -2.090052   -0.988623    0.435703
      3          1           0        2.070017    0.039876   -1.060179
      4          1           0        2.062140    0.845426    0.645909
      5         16           0       -1.909201    0.211106   -0.091220
      6         16           0        1.484024   -0.216623    0.101481
 ---------------------------------------------------------------------
                    Distance matrix (angstroms):
                    1          2          3          4          5
     1  H    0.000000
     2  H    1.914741   0.000000
     3  H    2.823873   4.538904   0.000000
     4  H    2.817087   4.544076   1.886719   0.000000
     5  S    1.360164   1.322764   4.099071   4.088677   0.000000
     6  S    2.065744   3.671745   1.326134   1.326110   3.425502
                    6
     6  S    0.000000
 Stoichiometry    H4S2
 Framework group  C1[X(H4S2)]
 Deg. of freedom    12
 Full point group                 C1      NOp   1
 Largest Abelian subgroup         C1      NOp   1
 Largest concise Abelian subgroup C1      NOp   1
                         Standard orientation:                         
 ---------------------------------------------------------------------
 Center     Atomic      Atomic             Coordinates (Angstroms)
 Number     Number       Type             X           Y           Z
 ---------------------------------------------------------------------
      1          1           0       -0.415528   -0.039950    0.004349
      2          1           0       -1.847640    1.230523   -0.030105
      3          1           0        2.171522   -0.624162    0.973950
      4          1           0        2.160350   -0.721405   -0.910228
      5         16           0       -1.774776   -0.089829    0.002556
      6         16           0        1.645482    0.099516   -0.004929
 ---------------------------------------------------------------------
 Rotational constants (GHZ):    108.0187448      2.4992883      2.4858477
 Standard basis: STO-3G (5D, 7F)
 There are    22 symmetry adapted cartesian basis functions of A   symmetry.
 There are    22 symmetry adapted basis functions of A   symmetry.
    22 basis functions,    66 primitive gaussians,    22 cartesian basis functions
    18 alpha electrons       18 beta electrons
       nuclear repulsion energy        76.6484552903 Hartrees.
 NAtoms=    6 NActive=    6 NUniq=    6 SFac= 1.00D+00 NAtFMM=   60 NAOKFM=F Big=F
 Integral buffers will be    131072 words long.
 Raffenetti 1 integral format.
 Two-electron integral symmetry is turned on.
 One-electron integrals computed using PRISM.
 NBasis=    22 RedAO= T EigKep=  3.10D-01  NBF=    22
 NBsUse=    22 1.00D-06 EigRej= -1.00D+00 NBFU=    22
 Initial guess from the checkpoint file:  "hydrogen_sulphide_dimer.chk"
 B after Tr=     0.000000    0.000000    0.000000
         Rot=    0.999564   -0.029411    0.000137    0.002776 Ang=  -3.39 deg.
 ExpMin= 1.69D-01 ExpMax= 5.33D+02 ExpMxC= 5.33D+02 IAcc=1 IRadAn=         1 AccDes= 0.00D+00
 Harris functional with IExCor=  205 and IRadAn=       1 diagonalized for initial guess.
 HarFok:  IExCor=  205 AccDes= 0.00D+00 IRadAn=         1 IDoV= 1 UseB2=F ITyADJ=14
 ICtDFT=  3500011 ScaDFX=  1.000000  1.000000  1.000000  1.000000
 FoFCou: FMM=F IPFlag=           0 FMFlag=      100000 FMFlg1=           0
         NFxFlg=           0 DoJE=T BraDBF=F KetDBF=T FulRan=T
         wScrn=  0.000000 ICntrl=     500 IOpCl=  0 I1Cent=   200000004 NGrid=           0
         NMat0=    1 NMatS0=      1 NMatT0=    0 NMatD0=    1 NMtDS0=    0 NMtDT0=    0
 Petite list used in FoFCou.
 Keep R1 ints in memory in canonical form, NReq=860148.
 Requested convergence on RMS density matrix=1.00D-08 within 128 cycles.
 Requested convergence on MAX density matrix=1.00D-06.
 Requested convergence on             energy=1.00D-06.
 No special actions if energy rises.
 SCF Done:  E(RHF) =  -788.615102020     A.U. after   10 cycles
            NFock= 10  Conv=0.87D-09     -V/T= 2.0118
 Calling FoFJK, ICntrl=      2127 FMM=F ISym2X=0 I1Cent= 0 IOpClX= 0 NMat=1 NMatS=1 NMatT=0.
 ***** Axes restored to original set *****
 -------------------------------------------------------------------
 Center     Atomic                   Forces (Hartrees/Bohr)
 Number     Number              X              Y              Z
 -------------------------------------------------------------------
      1        1          -0.029415505    0.008198725   -0.003606016
      2        1          -0.004320874   -0.002983104    0.001321511
      3        1          -0.001768031   -0.003073085   -0.004377605
      4        1          -0.001823286    0.001420539    0.005147931
      5       16           0.013161228   -0.001598279    0.000632141
      6       16           0.024166468   -0.001964795    0.000882038
 -------------------------------------------------------------------
 Cartesian Forces:  Max     0.029415505 RMS     0.010008926

 GradGradGradGradGradGradGradGradGradGradGradGradGradGradGradGradGradGrad
 Berny optimization.
 Using GEDIIS/GDIIS optimizer.
 FormGI is forming the generalized inverse of G from B-inverse, IUseBI=4.
 Internal  Forces:  Max     0.020941442 RMS     0.007350875
 Search for a local minimum.
 Step number   5 out of a maximum of   24
 All quantities printed in internal units (Hartrees-Bohrs-Radians)
 Mixed Optimization -- RFO/linear search
 Update second derivatives using D2CorX and points    4    5
 DE= -1.32D-02 DEPred=-1.25D-02 R= 1.06D+00
 TightC=F SS=  1.41D+00  RLast= 4.02D-01 DXNew= 8.4853D-01 1.2071D+00
 Trust test= 1.06D+00 RLast= 4.02D-01 DXMaxT set to 8.49D-01
 The second derivative matrix:
                          R1        R2        R3        R4        R5
           R1           0.80080
           R2           0.03815   0.07056
           R3          -0.14850   0.02517   0.87015
           R4          -0.15301   0.02717  -0.11951   0.86602
           R5          -0.15320   0.02719  -0.11967  -0.12390   0.86626
           A1          -0.00531   0.00177   0.01623   0.01467   0.01468
           A2          -0.00487   0.00743  -0.00764  -0.00770  -0.00771
           A3          -0.00496   0.00749  -0.00780  -0.00785  -0.00786
           A4          -0.01335   0.01125   0.00452   0.00287   0.00287
           A5           0.00160  -0.00205   0.00316   0.00313   0.00313
           A6          -0.00016   0.00022  -0.00033  -0.00033  -0.00033
           D1          -0.00013   0.00021  -0.00074  -0.00070  -0.00070
           D2          -0.00672   0.00960  -0.01372  -0.01358  -0.01359
           D3           0.00673  -0.00959   0.01372   0.01358   0.01359
                          A1        A2        A3        A4        A5
           A1           0.19625
           A2          -0.01143   0.16133
           A3          -0.01162   0.00136   0.16140
           A4           0.02103  -0.00967  -0.00981   0.16819
           A5           0.00464  -0.00078  -0.00080   0.00359   0.00269
           A6          -0.00051   0.00009   0.00009  -0.00039  -0.00004
           D1          -0.00127   0.00032   0.00032  -0.00085  -0.00014
           D2          -0.02101   0.00350   0.00357  -0.01634  -0.00176
           D3           0.02101  -0.00349  -0.00357   0.01634   0.00176
                          A6        D1        D2        D3
           A6           0.00230
           D1           0.00002   0.05172
           D2           0.00020   0.00062   0.01021
           D3          -0.00020  -0.00062  -0.00790   0.01020
 ITU=  1  0  0  1  0
 Use linear search instead of GDIIS.
     Eigenvalues ---    0.00230   0.00230   0.00847   0.06077   0.09891
     Eigenvalues ---    0.15963   0.16000   0.21880   0.44895   0.98691
     Eigenvalues ---    0.99002   0.99103
 RFO step:  Lambda=-6.94093746D-03 EMin= 2.30000000D-03
 Quartic linear search produced a step of  0.19874.
 Iteration  1 RMS(Cart)=  0.05322846 RMS(Int)=  0.02961409
 Iteration  2 RMS(Cart)=  0.03465949 RMS(Int)=  0.00018175
 Iteration  3 RMS(Cart)=  0.00006871 RMS(Int)=  0.00017609
 Iteration  4 RMS(Cart)=  0.00000001 RMS(Int)=  0.00017609
 Variable       Old X    -DE/DX   Delta X   Delta X   Delta X     New X
                                 (Linear)    (Quad)   (Total)
    R1        2.57034  -0.00937  -0.01222  -0.02470  -0.03691   2.53342
    R2        3.90369   0.02094   0.06207   0.24873   0.31079   4.21448
    R3        2.49966   0.00382  -0.01070  -0.00753  -0.01823   2.48143
    R4        2.50603   0.00246  -0.01103  -0.00939  -0.02042   2.48561
    R5        2.50598   0.00246  -0.01103  -0.00940  -0.02044   2.48555
    A1        1.58927   0.00958  -0.02469   0.06159   0.03690   1.62617
    A2        1.93436  -0.00360  -0.00242  -0.01746  -0.01990   1.91446
    A3        1.92691  -0.00366  -0.00240  -0.01759  -0.02002   1.90690
    A4        1.58288   0.00816  -0.02814   0.07516   0.04697   1.62985
    A5        3.11056   0.00024  -0.00535  -0.02216  -0.02770   3.08286
    A6        3.14867  -0.00009   0.00131  -0.00244  -0.00125   3.14742
    D1        0.00891  -0.00009   0.00148   0.00772   0.00858   0.01749
    D2        2.24981  -0.00304   0.01722  -0.03772  -0.02055   2.22926
    D3       -2.29947   0.00304  -0.01712   0.03838   0.02130  -2.27817
         Item               Value     Threshold  Converged?
 Maximum Force            0.020941     0.000450     NO 
 RMS     Force            0.007351     0.000300     NO 
 Maximum Displacement     0.169115     0.001800     NO 
 RMS     Displacement     0.086018     0.001200     NO 
 Predicted change in Energy=-4.189399D-03
 GradGradGradGradGradGradGradGradGradGradGradGradGradGradGradGradGradGrad

                          Input orientation:                          
 ---------------------------------------------------------------------
 Center     Atomic      Atomic             Coordinates (Angstroms)
 Number     Number       Type             X           Y           Z
 ---------------------------------------------------------------------
      1          1           0       -0.633615    0.084192   -0.037859
      2          1           0       -2.153402   -1.000705    0.441394
      3          1           0        2.124382    0.035092   -1.073114
      4          1           0        2.116821    0.852022    0.658036
      5         16           0       -1.969378    0.189411   -0.082090
      6         16           0        1.573516   -0.206143    0.096689
 ---------------------------------------------------------------------
                    Distance matrix (angstroms):
                    1          2          3          4          5
     1  H    0.000000
     2  H    1.927807   0.000000
     3  H    2.946305   4.654680   0.000000
     4  H    2.939172   4.659864   1.914240   0.000000
     5  S    1.340631   1.313118   4.214833   4.205219   0.000000
     6  S    2.230208   3.826235   1.315328   1.315295   3.569388
                    6
     6  S    0.000000
 Stoichiometry    H4S2
 Framework group  C1[X(H4S2)]
 Deg. of freedom    12
 Full point group                 C1      NOp   1
 Largest Abelian subgroup         C1      NOp   1
 Largest concise Abelian subgroup C1      NOp   1
                         Standard orientation:                         
 ---------------------------------------------------------------------
 Center     Atomic      Atomic             Coordinates (Angstroms)
 Number     Number       Type             X           Y           Z
 ---------------------------------------------------------------------
      1          1           0       -0.504029   -0.067007    0.004881
      2          1           0       -1.936793    1.222126   -0.037065
      3          1           0        2.220580   -0.601777    0.990397
      4          1           0        2.210408   -0.710276   -0.920738
      5         16           0       -1.844507   -0.087134    0.002962
      6         16           0        1.720121    0.096942   -0.005304
 ---------------------------------------------------------------------
 Rotational constants (GHZ):    108.7880191      2.3053565      2.2953562
 Standard basis: STO-3G (5D, 7F)
 There are    22 symmetry adapted cartesian basis functions of A   symmetry.
 There are    22 symmetry adapted basis functions of A   symmetry.
    22 basis functions,    66 primitive gaussians,    22 cartesian basis functions
    18 alpha electrons       18 beta electrons
       nuclear repulsion energy        74.7601652258 Hartrees.
 NAtoms=    6 NActive=    6 NUniq=    6 SFac= 1.00D+00 NAtFMM=   60 NAOKFM=F Big=F
 Integral buffers will be    131072 words long.
 Raffenetti 1 integral format.
 Two-electron integral symmetry is turned on.
 One-electron integrals computed using PRISM.
 NBasis=    22 RedAO= T EigKep=  3.08D-01  NBF=    22
 NBsUse=    22 1.00D-06 EigRej= -1.00D+00 NBFU=    22
 Initial guess from the checkpoint file:  "hydrogen_sulphide_dimer.chk"
 B after Tr=     0.000000    0.000000    0.000000
         Rot=    0.999996    0.002743    0.000038    0.000400 Ang=   0.32 deg.
 ExpMin= 1.69D-01 ExpMax= 5.33D+02 ExpMxC= 5.33D+02 IAcc=1 IRadAn=         1 AccDes= 0.00D+00
 Harris functional with IExCor=  205 and IRadAn=       1 diagonalized for initial guess.
 HarFok:  IExCor=  205 AccDes= 0.00D+00 IRadAn=         1 IDoV= 1 UseB2=F ITyADJ=14
 ICtDFT=  3500011 ScaDFX=  1.000000  1.000000  1.000000  1.000000
 FoFCou: FMM=F IPFlag=           0 FMFlag=      100000 FMFlg1=           0
         NFxFlg=           0 DoJE=T BraDBF=F KetDBF=T FulRan=T
         wScrn=  0.000000 ICntrl=     500 IOpCl=  0 I1Cent=   200000004 NGrid=           0
         NMat0=    1 NMatS0=      1 NMatT0=    0 NMatD0=    1 NMtDS0=    0 NMtDT0=    0
 Petite list used in FoFCou.
 Keep R1 ints in memory in canonical form, NReq=860104.
 Requested convergence on RMS density matrix=1.00D-08 within 128 cycles.
 Requested convergence on MAX density matrix=1.00D-06.
 Requested convergence on             energy=1.00D-06.
 No special actions if energy rises.
 SCF Done:  E(RHF) =  -788.620136692     A.U. after    9 cycles
            NFock=  9  Conv=0.36D-08     -V/T= 2.0118
 Calling FoFJK, ICntrl=      2127 FMM=F ISym2X=0 I1Cent= 0 IOpClX= 0 NMat=1 NMatS=1 NMatT=0.
 ***** Axes restored to original set *****
 -------------------------------------------------------------------
 Center     Atomic                   Forces (Hartrees/Bohr)
 Number     Number              X              Y              Z
 -------------------------------------------------------------------
      1        1          -0.012592856    0.001172773   -0.000523280
      2        1          -0.000963785   -0.010324664    0.004543782
      3        1           0.004281327    0.002895887   -0.009015514
      4        1           0.004233821    0.008821942    0.003537848
      5       16           0.002969924    0.010861646   -0.004804847
      6       16           0.002071570   -0.013427584    0.006262011
 -------------------------------------------------------------------
 Cartesian Forces:  Max     0.013427584 RMS     0.006985513

 GradGradGradGradGradGradGradGradGradGradGradGradGradGradGradGradGradGrad
 Berny optimization.
 Using GEDIIS/GDIIS optimizer.
 FormGI is forming the generalized inverse of G from B-inverse, IUseBI=4.
 Internal  Forces:  Max     0.011303969 RMS     0.005792967
 Search for a local minimum.
 Step number   6 out of a maximum of   24
 All quantities printed in internal units (Hartrees-Bohrs-Radians)
 Mixed Optimization -- RFO/linear search
 Update second derivatives using D2CorX and points    5    6
 DE= -5.03D-03 DEPred=-4.19D-03 R= 1.20D+00
 TightC=F SS=  1.41D+00  RLast= 3.24D-01 DXNew= 1.4270D+00 9.7306D-01
 Trust test= 1.20D+00 RLast= 3.24D-01 DXMaxT set to 9.73D-01
 The second derivative matrix:
                          R1        R2        R3        R4        R5
           R1           0.79983
           R2           0.04780   0.04009
           R3          -0.13234  -0.00059   0.87905
           R4          -0.13802   0.00425  -0.10926   0.87740
           R5          -0.13819   0.00424  -0.10939  -0.11249   0.87769
           A1          -0.00961  -0.00078  -0.00552  -0.00618  -0.00620
           A2          -0.00259   0.00547  -0.00292  -0.00301  -0.00301
           A3          -0.00258   0.00541  -0.00296  -0.00305  -0.00305
           A4          -0.00978  -0.00589  -0.01709  -0.01690  -0.01693
           A5           0.00072  -0.00038   0.00324   0.00309   0.00310
           A6          -0.00004   0.00002  -0.00030  -0.00028  -0.00028
           D1           0.00044  -0.00097  -0.00098  -0.00086  -0.00086
           D2           0.00215  -0.00443  -0.00859  -0.00772  -0.00772
           D3          -0.00215   0.00443   0.00859   0.00772   0.00772
                          A1        A2        A3        A4        A5
           A1           0.20855
           A2          -0.01567   0.16253
           A3          -0.01600   0.00260   0.16267
           A4           0.02415  -0.01225  -0.01252   0.16020
           A5           0.00563  -0.00095  -0.00097   0.00484   0.00266
           A6          -0.00066   0.00012   0.00012  -0.00055  -0.00004
           D1          -0.00185   0.00040   0.00040  -0.00169  -0.00011
           D2          -0.03304   0.00613   0.00626  -0.02818  -0.00173
           D3           0.03304  -0.00613  -0.00626   0.02817   0.00173
                          A6        D1        D2        D3
           A6           0.00230
           D1           0.00001   0.05169
           D2           0.00022   0.00050   0.01316
           D3          -0.00022  -0.00050  -0.01086   0.01316
 ITU=  1  1  0  0  1  0
 Use linear search instead of GDIIS.
     Eigenvalues ---    0.00230   0.00230   0.00798   0.03542   0.10232
     Eigenvalues ---    0.15957   0.16000   0.24445   0.48610   0.97582
     Eigenvalues ---    0.98735   0.99005
 RFO step:  Lambda=-2.81327199D-03 EMin= 2.29999865D-03
 Quartic linear search produced a step of  0.69930.
 Iteration  1 RMS(Cart)=  0.06206826 RMS(Int)=  0.04148275
 Iteration  2 RMS(Cart)=  0.04860498 RMS(Int)=  0.00033498
 Iteration  3 RMS(Cart)=  0.00012142 RMS(Int)=  0.00032598
 Iteration  4 RMS(Cart)=  0.00000006 RMS(Int)=  0.00032598
 Variable       Old X    -DE/DX   Delta X   Delta X   Delta X     New X
                                 (Linear)    (Quad)   (Total)
    R1        2.53342  -0.00194  -0.02581   0.00659  -0.01922   2.51420
    R2        4.21448   0.01074   0.21734   0.13775   0.35509   4.56957
    R3        2.48143   0.01130  -0.01275   0.02494   0.01219   2.49363
    R4        2.48561   0.01034  -0.01428   0.02365   0.00937   2.49498
    R5        2.48555   0.01036  -0.01429   0.02367   0.00938   2.49493
    A1        1.62617  -0.00155   0.02580  -0.02844  -0.00264   1.62353
    A2        1.91446  -0.00091  -0.01391  -0.01239  -0.02656   1.88791
    A3        1.90690  -0.00090  -0.01400  -0.01224  -0.02648   1.88041
    A4        1.62985  -0.00131   0.03285  -0.03858  -0.00645   1.62340
    A5        3.08286   0.00010  -0.01937   0.05946   0.04024   3.12311
    A6        3.14742  -0.00005  -0.00087  -0.03867  -0.03953   3.10789
    D1        0.01749  -0.00009   0.00600  -0.01280  -0.00668   0.01081
    D2        2.22926   0.00119  -0.01437   0.03409   0.01908   2.24834
    D3       -2.27817  -0.00118   0.01489  -0.03446  -0.01893  -2.29710
         Item               Value     Threshold  Converged?
 Maximum Force            0.011304     0.000450     NO 
 RMS     Force            0.005793     0.000300     NO 
 Maximum Displacement     0.207732     0.001800     NO 
 RMS     Displacement     0.106847     0.001200     NO 
 Predicted change in Energy=-1.764993D-03
 GradGradGradGradGradGradGradGradGradGradGradGradGradGradGradGradGradGrad

                          Input orientation:                          
 ---------------------------------------------------------------------
 Center     Atomic      Atomic             Coordinates (Angstroms)
 Number     Number       Type             X           Y           Z
 ---------------------------------------------------------------------
      1          1           0       -0.715733    0.063556   -0.009140
      2          1           0       -2.248162   -1.007495    0.439167
      3          1           0        2.186262    0.055972   -1.086097
      4          1           0        2.190861    0.875447    0.645374
      5         16           0       -2.038349    0.182916   -0.090139
      6         16           0        1.683443   -0.216528    0.103891
 ---------------------------------------------------------------------
                    Distance matrix (angstroms):
                    1          2          3          4          5
     1  H    0.000000
     2  H    1.922619   0.000000
     3  H    3.095395   4.808483   0.000000
     4  H    3.088017   4.826274   1.915607   0.000000
     5  S    1.330458   1.319570   4.342278   4.348194   0.000000
     6  S    2.418113   4.024370   1.320286   1.320260   3.748191
                    6
     6  S    0.000000
 Stoichiometry    H4S2
 Framework group  C1[X(H4S2)]
 Deg. of freedom    12
 Full point group                 C1      NOp   1
 Largest Abelian subgroup         C1      NOp   1
 Largest concise Abelian subgroup C1      NOp   1
                         Standard orientation:                         
 ---------------------------------------------------------------------
 Center     Atomic      Atomic             Coordinates (Angstroms)
 Number     Number       Type             X           Y           Z
 ---------------------------------------------------------------------
      1          1           0       -0.601141   -0.037331   -0.019684
      2          1           0       -2.050482    1.225949   -0.019792
      3          1           0        2.261326   -0.649221    0.986965
      4          1           0        2.268969   -0.726515   -0.927066
      5         16           0       -1.930452   -0.087963    0.002400
      6         16           0        1.813035    0.099658   -0.003677
 ---------------------------------------------------------------------
 Rotational constants (GHZ):    106.2701383      2.0959932      2.0868421
 Standard basis: STO-3G (5D, 7F)
 There are    22 symmetry adapted cartesian basis functions of A   symmetry.
 There are    22 symmetry adapted basis functions of A   symmetry.
    22 basis functions,    66 primitive gaussians,    22 cartesian basis functions
    18 alpha electrons       18 beta electrons
       nuclear repulsion energy        72.3645721542 Hartrees.
 NAtoms=    6 NActive=    6 NUniq=    6 SFac= 1.00D+00 NAtFMM=   60 NAOKFM=F Big=F
 Integral buffers will be    131072 words long.
 Raffenetti 1 integral format.
 Two-electron integral symmetry is turned on.
 One-electron integrals computed using PRISM.
 NBasis=    22 RedAO= T EigKep=  3.12D-01  NBF=    22
 NBsUse=    22 1.00D-06 EigRej= -1.00D+00 NBFU=    22
 Initial guess from the checkpoint file:  "hydrogen_sulphide_dimer.chk"
 B after Tr=     0.000000    0.000000    0.000000
         Rot=    0.999974   -0.007187    0.000164    0.000524 Ang=  -0.83 deg.
 ExpMin= 1.69D-01 ExpMax= 5.33D+02 ExpMxC= 5.33D+02 IAcc=1 IRadAn=         1 AccDes= 0.00D+00
 Harris functional with IExCor=  205 and IRadAn=       1 diagonalized for initial guess.
 HarFok:  IExCor=  205 AccDes= 0.00D+00 IRadAn=         1 IDoV= 1 UseB2=F ITyADJ=14
 ICtDFT=  3500011 ScaDFX=  1.000000  1.000000  1.000000  1.000000
 FoFCou: FMM=F IPFlag=           0 FMFlag=      100000 FMFlg1=           0
         NFxFlg=           0 DoJE=T BraDBF=F KetDBF=T FulRan=T
         wScrn=  0.000000 ICntrl=     500 IOpCl=  0 I1Cent=   200000004 NGrid=           0
         NMat0=    1 NMatS0=      1 NMatT0=    0 NMatD0=    1 NMtDS0=    0 NMtDT0=    0
 Petite list used in FoFCou.
 Keep R1 ints in memory in canonical form, NReq=860061.
 Requested convergence on RMS density matrix=1.00D-08 within 128 cycles.
 Requested convergence on MAX density matrix=1.00D-06.
 Requested convergence on             energy=1.00D-06.
 No special actions if energy rises.
 SCF Done:  E(RHF) =  -788.623020170     A.U. after    9 cycles
            NFock=  9  Conv=0.19D-08     -V/T= 2.0118
 Calling FoFJK, ICntrl=      2127 FMM=F ISym2X=0 I1Cent= 0 IOpClX= 0 NMat=1 NMatS=1 NMatT=0.
 ***** Axes restored to original set *****
 -------------------------------------------------------------------
 Center     Atomic                   Forces (Hartrees/Bohr)
 Number     Number              X              Y              Z
 -------------------------------------------------------------------
      1        1          -0.002418926    0.000145407   -0.000185712
      2        1          -0.000538586   -0.005820941    0.002595986
      3        1           0.002312162    0.001825515   -0.005664192
      4        1           0.002373946    0.005536616    0.002178893
      5       16          -0.001285123    0.006396528   -0.002788842
      6       16          -0.000443473   -0.008083125    0.003863867
 -------------------------------------------------------------------
 Cartesian Forces:  Max     0.008083125 RMS     0.003796389

 GradGradGradGradGradGradGradGradGradGradGradGradGradGradGradGradGradGrad
 Berny optimization.
 Using GEDIIS/GDIIS optimizer.
 FormGI is forming the generalized inverse of G from B-inverse, IUseBI=4.
 Internal  Forces:  Max     0.006385306 RMS     0.003245310
 Search for a local minimum.
 Step number   7 out of a maximum of   24
 All quantities printed in internal units (Hartrees-Bohrs-Radians)
 Mixed Optimization -- RFO/linear search
 Update second derivatives using D2CorX and points    6    7
 DE= -2.88D-03 DEPred=-1.76D-03 R= 1.63D+00
 TightC=F SS=  1.41D+00  RLast= 3.64D-01 DXNew= 1.6365D+00 1.0907D+00
 Trust test= 1.63D+00 RLast= 3.64D-01 DXMaxT set to 1.09D+00
 The second derivative matrix:
                          R1        R2        R3        R4        R5
           R1           0.80451
           R2           0.04401   0.02307
           R3          -0.13472  -0.01664   0.86417
           R4          -0.13942  -0.01168  -0.12382   0.86332
           R5          -0.13957  -0.01175  -0.12400  -0.12661   0.86353
           A1          -0.00959   0.00122  -0.00372  -0.00446  -0.00448
           A2          -0.00318   0.01040   0.00136   0.00094   0.00095
           A3          -0.00307   0.01018   0.00120   0.00082   0.00082
           A4          -0.01048   0.00199  -0.01019  -0.01048  -0.01050
           A5           0.00018   0.00054   0.00394   0.00366   0.00367
           A6           0.00026  -0.00034  -0.00055  -0.00047  -0.00047
           D1           0.00033   0.00051   0.00033   0.00036   0.00036
           D2           0.00056   0.00104  -0.00404  -0.00369  -0.00369
           D3          -0.00056  -0.00104   0.00403   0.00368   0.00368
                          A1        A2        A3        A4        A5
           A1           0.20835
           A2          -0.01612   0.16162
           A3          -0.01645   0.00169   0.16177
           A4           0.02341  -0.01378  -0.01404   0.15764
           A5           0.00558  -0.00099  -0.00102   0.00475   0.00271
           A6          -0.00065   0.00010   0.00011  -0.00056  -0.00007
           D1          -0.00199   0.00010   0.00011  -0.00218  -0.00013
           D2          -0.03347   0.00540   0.00552  -0.02946  -0.00165
           D3           0.03347  -0.00540  -0.00552   0.02946   0.00165
                          A6        D1        D2        D3
           A6           0.00232
           D1           0.00001   0.05160
           D2           0.00014   0.00024   0.01282
           D3          -0.00014  -0.00024  -0.01052   0.01282
 ITU=  1  1  1  0  0  1  0
 Use linear search instead of GDIIS.
     Eigenvalues ---    0.00230   0.00234   0.00733   0.01890   0.10607
     Eigenvalues ---    0.15942   0.16000   0.24472   0.45362   0.96883
     Eigenvalues ---    0.98720   0.99005
 RFO step:  Lambda=-1.65314731D-04 EMin= 2.30000262D-03
 Quartic linear search produced a step of  2.00000.
 Iteration  1 RMS(Cart)=  0.10564744 RMS(Int)=  0.13791237
 Iteration  2 RMS(Cart)=  0.05800270 RMS(Int)=  0.08421489
 Iteration  3 RMS(Cart)=  0.06392114 RMS(Int)=  0.03082916
 Iteration  4 RMS(Cart)=  0.03678622 RMS(Int)=  0.00248281
 Iteration  5 RMS(Cart)=  0.00004516 RMS(Int)=  0.00248267
 Iteration  6 RMS(Cart)=  0.00000015 RMS(Int)=  0.00248267
 Variable       Old X    -DE/DX   Delta X   Delta X   Delta X     New X
                                 (Linear)    (Quad)   (Total)
    R1        2.51420   0.00188  -0.03845   0.01066  -0.02778   2.48642
    R2        4.56957   0.00431   0.71018   0.00087   0.71104   5.28061
    R3        2.49363   0.00638   0.02439  -0.00229   0.02212   2.51574
    R4        2.49498   0.00636   0.01874  -0.00040   0.01834   2.51332
    R5        2.49493   0.00639   0.01876  -0.00035   0.01841   2.51334
    A1        1.62353  -0.00120  -0.00528  -0.00355  -0.00888   1.61465
    A2        1.88791  -0.00065  -0.05311  -0.00456  -0.05913   1.82877
    A3        1.88041  -0.00057  -0.05297  -0.00313  -0.05725   1.82316
    A4        1.62340  -0.00067  -0.01291   0.00377  -0.01451   1.60889
    A5        3.12311  -0.00026   0.08049   0.03983   0.12027   3.24338
    A6        3.10789   0.00018  -0.07906  -0.13093  -0.21032   2.89757
    D1        0.01081   0.00006  -0.01336   0.00901  -0.00640   0.00441
    D2        2.24834   0.00059   0.03817   0.00584   0.03905   2.28739
    D3       -2.29710  -0.00058  -0.03786  -0.00085  -0.03371  -2.33081
         Item               Value     Threshold  Converged?
 Maximum Force            0.006385     0.000450     NO 
 RMS     Force            0.003245     0.000300     NO 
 Maximum Displacement     0.437156     0.001800     NO 
 RMS     Displacement     0.224875     0.001200     NO 
 Predicted change in Energy=-1.745077D-03
 GradGradGradGradGradGradGradGradGradGradGradGradGradGradGradGradGradGrad

[...]
           D2           0.00137   0.00269   0.03235
           D3          -0.00169  -0.00225  -0.03233   0.03280
 ITU=  0  0  0  0  0  0  1  1  0  0  0  1  1  1  1
     Eigenvalues ---    0.00011   0.00172   0.00185   0.00264   0.00358
     Eigenvalues ---    0.15253   0.21649   0.31141   0.46799   0.49990
     Eigenvalues ---    0.98986   1.06006
 En-DIIS/RFO-DIIS IScMMF=        0 using points:    23   22   21   20   19
 RFO step:  Lambda=-1.36954640D-09.
 DidBck=F Rises=F RFO-DIIS coefs:    1.85945   -3.21133    3.21623   -0.69186   -0.17249
 Iteration  1 RMS(Cart)=  0.00153513 RMS(Int)=  0.00000194
 Iteration  2 RMS(Cart)=  0.00000171 RMS(Int)=  0.00000126
 Iteration  3 RMS(Cart)=  0.00000000 RMS(Int)=  0.00000126
 Variable       Old X    -DE/DX   Delta X   Delta X   Delta X     New X
                                 (Linear)    (Quad)   (Total)
    R1        2.51223   0.00000   0.00003  -0.00003   0.00000   2.51223
    R2        5.23199   0.00000  -0.00021   0.00003  -0.00017   5.23182
    R3        2.51007  -0.00003  -0.00004  -0.00001  -0.00004   2.51002
    R4        2.51067   0.00001   0.00000   0.00002   0.00002   2.51069
    R5        2.51067   0.00001   0.00000   0.00002   0.00002   2.51069
    A1        1.61670   0.00000   0.00001   0.00000   0.00001   1.61670
    A2        1.77844   0.00000  -0.00013  -0.00010  -0.00023   1.77821
    A3        1.77861   0.00000   0.00003  -0.00009  -0.00006   1.77855
    A4        1.61666   0.00000   0.00001  -0.00001   0.00000   1.61666
    A5        3.08945   0.00000  -0.00031   0.00003  -0.00027   3.08918
    A6        3.14304   0.00000  -0.00100  -0.00032  -0.00132   3.14172
    D1        0.01253   0.00000   0.00027   0.00004   0.00031   0.01284
    D2        2.31080   0.00000  -0.00277  -0.00011  -0.00288   2.30792
    D3       -2.30372   0.00000  -0.00276  -0.00017  -0.00293  -2.30665
         Item               Value     Threshold  Converged?
 Maximum Force            0.000032     0.000450     YES
 RMS     Force            0.000010     0.000300     YES
 Maximum Displacement     0.003190     0.001800     NO 
 RMS     Displacement     0.001535     0.001200     NO 
 Predicted change in Energy=-1.122350D-09
 GradGradGradGradGradGradGradGradGradGradGradGradGradGradGradGradGradGrad

                          Input orientation:                          
 ---------------------------------------------------------------------
 Center     Atomic      Atomic             Coordinates (Angstroms)
 Number     Number       Type             X           Y           Z
 ---------------------------------------------------------------------
      1          1           0       -0.855202    0.074163   -0.037976
      2          1           0       -2.348122   -1.025877    0.466761
      3          1           0        2.276959    0.096171   -1.102939
      4          1           0        2.276142    0.897330    0.643586
      5         16           0       -2.180283    0.171397   -0.083337
      6         16           0        1.888828   -0.259315    0.116961
 ---------------------------------------------------------------------
                    Distance matrix (angstroms):
                    1          2          3          4          5
     1  H    0.000000
     2  H    1.921889   0.000000
     3  H    3.308333   5.011419   0.000000
     4  H    3.308692   5.011368   1.921512   0.000000
     5  S    1.329417   1.328248   4.572992   4.573305   0.000000
     6  S    2.768558   4.319921   1.328598   1.328598   4.096742
                    6
     6  S    0.000000
 Stoichiometry    H4S2
 Framework group  C1[X(H4S2)]
 Deg. of freedom    12
 Full point group                 C1      NOp   1
 Largest Abelian subgroup         C1      NOp   1
 Largest concise Abelian subgroup C1      NOp   1
                         Standard orientation:                         
 ---------------------------------------------------------------------
 Center     Atomic      Atomic             Coordinates (Angstroms)
 Number     Number       Type             X           Y           Z
 ---------------------------------------------------------------------
      1          1           0       -0.769954   -0.069692    0.000068
      2          1           0       -2.174209    1.242453    0.000490
      3          1           0        2.321325   -0.753504    0.959995
      4          1           0        2.321652   -0.751434   -0.961516
      5         16           0       -2.099298   -0.083681   -0.000046
      6         16           0        1.993122    0.104442    0.000107
 ---------------------------------------------------------------------
 Rotational constants (GHZ):    101.0454585      1.7665136      1.7586427
 Standard basis: STO-3G (5D, 7F)
 There are    22 symmetry adapted cartesian basis functions of A   symmetry.
 There are    22 symmetry adapted basis functions of A   symmetry.
    22 basis functions,    66 primitive gaussians,    22 cartesian basis functions
    18 alpha electrons       18 beta electrons
       nuclear repulsion energy        68.3592000694 Hartrees.
 NAtoms=    6 NActive=    6 NUniq=    6 SFac= 1.00D+00 NAtFMM=   60 NAOKFM=F Big=F
 Integral buffers will be    131072 words long.
 Raffenetti 1 integral format.
 Two-electron integral symmetry is turned on.
 One-electron integrals computed using PRISM.
 NBasis=    22 RedAO= T EigKep=  3.18D-01  NBF=    22
 NBsUse=    22 1.00D-06 EigRej= -1.00D+00 NBFU=    22
 Initial guess from the checkpoint file:  "hydrogen_sulphide_dimer.chk"
 B after Tr=     0.000000    0.000000    0.000000
         Rot=    0.999999    0.001532    0.000006    0.000003 Ang=   0.18 deg.
 Keep R1 ints in memory in canonical form, NReq=859881.
 Requested convergence on RMS density matrix=1.00D-08 within 128 cycles.
 Requested convergence on MAX density matrix=1.00D-06.
 Requested convergence on             energy=1.00D-06.
 No special actions if energy rises.
 SCF Done:  E(RHF) =  -788.624302056     A.U. after    7 cycles
            NFock=  7  Conv=0.94D-09     -V/T= 2.0119
 Calling FoFJK, ICntrl=      2127 FMM=F ISym2X=0 I1Cent= 0 IOpClX= 0 NMat=1 NMatS=1 NMatT=0.
 ***** Axes restored to original set *****
 -------------------------------------------------------------------
 Center     Atomic                   Forces (Hartrees/Bohr)
 Number     Number              X              Y              Z
 -------------------------------------------------------------------
      1        1          -0.000000147    0.000000399    0.000000173
      2        1           0.000001911    0.000013446   -0.000006196
      3        1           0.000002306    0.000001744   -0.000006953
      4        1           0.000002012    0.000006814    0.000003328
      5       16          -0.000001665   -0.000013679    0.000006168
      6       16          -0.000004417   -0.000008723    0.000003480
 -------------------------------------------------------------------
 Cartesian Forces:  Max     0.000013679 RMS     0.000006133

 GradGradGradGradGradGradGradGradGradGradGradGradGradGradGradGradGradGrad
 Berny optimization.
 Using GEDIIS/GDIIS optimizer.
 FormGI is forming the generalized inverse of G from B-inverse, IUseBI=4.
 Internal  Forces:  Max     0.000014928 RMS     0.000004943
 Search for a local minimum.
 Step number  24 out of a maximum of   24
 All quantities printed in internal units (Hartrees-Bohrs-Radians)
 Mixed Optimization -- En-DIIS/RFO-DIIS
 Swapping is turned off.
 Update second derivatives using D2CorX and points   10   11   12   13   14
                                                     15   16   17   18   19
                                                     20   21   22   23   24
 DE= -3.75D-09 DEPred=-1.12D-09 R= 3.34D+00
 Trust test= 3.34D+00 RLast= 4.34D-03 DXMaxT set to 1.83D+00
 The second derivative matrix:
                          R1        R2        R3        R4        R5
           R1           0.45054
           R2           0.00067   0.00248
           R3           0.03984   0.00025   0.55638
           R4          -0.00571   0.00166  -0.05673   0.77822
           R5          -0.00386   0.00181  -0.05443  -0.21332   0.77502
           A1           0.01033  -0.00062   0.00289  -0.01422  -0.01420
           A2          -0.00250  -0.00121  -0.00143  -0.00328  -0.00373
           A3          -0.00108   0.00018  -0.00482  -0.00098  -0.00047
           A4          -0.00536   0.00076   0.00489  -0.00323  -0.00267
           A5           0.00246   0.00014  -0.00298  -0.00008  -0.00008
           A6          -0.00622   0.00023  -0.00387   0.00246   0.00259
           D1          -0.01312   0.00046  -0.01747   0.00348   0.00118
           D2          -0.00708  -0.00053  -0.01171  -0.00873  -0.00905
           D3           0.00778   0.00052   0.00901   0.00979   0.00975
                          A1        A2        A3        A4        A5
           A1           0.31136
           A2           0.00099   0.06958
           A3           0.00024  -0.07183   0.09042
           A4           0.00388  -0.01794  -0.01886   0.15147
           A5           0.00129  -0.00032  -0.00102   0.00659   0.00383
           A6          -0.00027   0.00022   0.00016  -0.00153   0.00035
           D1           0.00468  -0.00002   0.00135  -0.00505   0.00382
           D2           0.00187   0.00643   0.01099  -0.06570  -0.00323
           D3          -0.00153  -0.01003  -0.00686   0.06587   0.00340
                          A6        D1        D2        D3
           A6           0.00197
           D1           0.00259   0.01807
           D2           0.00093   0.00304   0.03207
           D3          -0.00103  -0.00249  -0.03196   0.03232
 ITU=  0  0  0  0  0  0  0  1  1  0  0  0  1  1  1
     Eigenvalues ---    0.00012   0.00147   0.00189   0.00235   0.00331
     Eigenvalues ---    0.15245   0.21457   0.30900   0.43462   0.49387
     Eigenvalues ---    0.64506   0.98995
 En-DIIS/RFO-DIIS IScMMF=        0 using points:    24   23   22   21   20
 RFO step:  Lambda=-4.14890752D-10.
 DidBck=F Rises=F RFO-DIIS coefs:    1.44394   -0.23040   -1.43028    1.95334   -0.73659
 Iteration  1 RMS(Cart)=  0.00020320 RMS(Int)=  0.00000128
 Iteration  2 RMS(Cart)=  0.00000004 RMS(Int)=  0.00000128
 Variable       Old X    -DE/DX   Delta X   Delta X   Delta X     New X
                                 (Linear)    (Quad)   (Total)
    R1        2.51223   0.00000   0.00000   0.00000   0.00000   2.51223
    R2        5.23182   0.00000   0.00006  -0.00008  -0.00002   5.23180
    R3        2.51002  -0.00001  -0.00004   0.00000  -0.00004   2.50999
    R4        2.51069   0.00001   0.00002   0.00000   0.00002   2.51071
    R5        2.51069   0.00001   0.00002   0.00000   0.00002   2.51071
    A1        1.61670   0.00000   0.00000   0.00000   0.00000   1.61670
    A2        1.77821   0.00000   0.00000   0.00002   0.00002   1.77823
    A3        1.77855   0.00000   0.00001   0.00001   0.00002   1.77856
    A4        1.61666   0.00000   0.00000   0.00000   0.00000   1.61666
    A5        3.08918   0.00000  -0.00016  -0.00005  -0.00021   3.08896
    A6        3.14172   0.00000  -0.00022   0.00004  -0.00018   3.14154
    D1        0.01284   0.00000   0.00007   0.00001   0.00009   0.01293
    D2        2.30792   0.00000  -0.00028  -0.00002  -0.00030   2.30762
    D3       -2.30665   0.00000  -0.00026  -0.00001  -0.00027  -2.30691
         Item               Value     Threshold  Converged?
 Maximum Force            0.000015     0.000450     YES
 RMS     Force            0.000005     0.000300     YES
 Maximum Displacement     0.000420     0.001800     YES
 RMS     Displacement     0.000203     0.001200     YES
 Predicted change in Energy=-3.102215D-10
 Optimization completed.
    -- Stationary point found.
                           ----------------------------
                           !   Optimized Parameters   !
                           ! (Angstroms and Degrees)  !
 --------------------------                            --------------------------
 ! Name  Definition              Value          Derivative Info.                !
 --------------------------------------------------------------------------------
 ! R1    R(1,5)                  1.3294         -DE/DX =    0.0                 !
 ! R2    R(1,6)                  2.7686         -DE/DX =    0.0                 !
 ! R3    R(2,5)                  1.3282         -DE/DX =    0.0                 !
 ! R4    R(3,6)                  1.3286         -DE/DX =    0.0                 !
 ! R5    R(4,6)                  1.3286         -DE/DX =    0.0                 !
 ! A1    A(1,5,2)               92.6302         -DE/DX =    0.0                 !
 ! A2    A(1,6,3)              101.8842         -DE/DX =    0.0                 !
 ! A3    A(1,6,4)              101.9031         -DE/DX =    0.0                 !
 ! A4    A(3,6,4)               92.6279         -DE/DX =    0.0                 !
 ! A5    L(5,1,6,2,-1)         176.9968         -DE/DX =    0.0                 !
 ! A6    L(5,1,6,2,-2)         180.0074         -DE/DX =    0.0                 !
 ! D1    D(1,3,6,5)              0.7359         -DE/DX =    0.0                 !
 ! D2    D(2,5,6,3)            132.234          -DE/DX =    0.0                 !
 ! D3    D(2,5,6,4)           -132.1611         -DE/DX =    0.0                 !
 --------------------------------------------------------------------------------
 GradGradGradGradGradGradGradGradGradGradGradGradGradGradGradGradGradGrad

                          Input orientation:                          
 ---------------------------------------------------------------------
 Center     Atomic      Atomic             Coordinates (Angstroms)
 Number     Number       Type             X           Y           Z
 ---------------------------------------------------------------------
      1          1           0       -0.855202    0.074163   -0.037976
      2          1           0       -2.348122   -1.025877    0.466761
      3          1           0        2.276959    0.096171   -1.102939
      4          1           0        2.276142    0.897330    0.643586
      5         16           0       -2.180283    0.171397   -0.083337
      6         16           0        1.888828   -0.259315    0.116961
 ---------------------------------------------------------------------
                    Distance matrix (angstroms):
                    1          2          3          4          5
     1  H    0.000000
     2  H    1.921889   0.000000
     3  H    3.308333   5.011419   0.000000
     4  H    3.308692   5.011368   1.921512   0.000000
     5  S    1.329417   1.328248   4.572992   4.573305   0.000000
     6  S    2.768558   4.319921   1.328598   1.328598   4.096742
                    6
     6  S    0.000000
 Stoichiometry    H4S2
 Framework group  C1[X(H4S2)]
 Deg. of freedom    12
 Full point group                 C1      NOp   1
 Largest Abelian subgroup         C1      NOp   1
 Largest concise Abelian subgroup C1      NOp   1
                         Standard orientation:                         
 ---------------------------------------------------------------------
 Center     Atomic      Atomic             Coordinates (Angstroms)
 Number     Number       Type             X           Y           Z
 ---------------------------------------------------------------------
      1          1           0       -0.769954   -0.069692    0.000068
      2          1           0       -2.174209    1.242453    0.000490
      3          1           0        2.321325   -0.753504    0.959995
      4          1           0        2.321652   -0.751434   -0.961516
      5         16           0       -2.099298   -0.083681   -0.000046
      6         16           0        1.993122    0.104442    0.000107
 ---------------------------------------------------------------------
 Rotational constants (GHZ):    101.0454585      1.7665136      1.7586427

 **********************************************************************

            Population analysis using the SCF density.

 **********************************************************************

 Orbital symmetries:
       Occupied  (A) (A) (A) (A) (A) (A) (A) (A) (A) (A) (A) (A)
                 (A) (A) (A) (A) (A) (A)
       Virtual   (A) (A) (A) (A)
 The electronic state is 1-A.
 Alpha  occ. eigenvalues --  -90.75486 -90.73296  -8.65717  -8.63643  -6.28969
 Alpha  occ. eigenvalues --   -6.28754  -6.28410  -6.26899  -6.26680  -6.26334
 Alpha  occ. eigenvalues --   -0.90681  -0.88923  -0.51486  -0.50016  -0.40460
 Alpha  occ. eigenvalues --   -0.38529  -0.28473  -0.26988
 Alpha virt. eigenvalues --    0.46566   0.48440   0.53580   0.55586
          Condensed to atoms (all electrons):
               1          2          3          4          5          6
     1  H    0.766844  -0.019567  -0.000077  -0.000076   0.276079   0.002291
     2  H   -0.019567   0.782734   0.000000   0.000000   0.274942   0.000020
     3  H   -0.000077   0.000000   0.775651  -0.019708   0.000008   0.276018
     4  H   -0.000076   0.000000  -0.019708   0.775651   0.000008   0.276018
     5  S    0.276079   0.274942   0.000008   0.000008  15.394620  -0.000723
     6  S    0.002291   0.000020   0.276018   0.276018  -0.000723  15.374038
 Mulliken charges:
               1
     1  H   -0.025493
     2  H   -0.038128
     3  H   -0.031892
     4  H   -0.031892
     5  S    0.055067
     6  S    0.072338
 Sum of Mulliken charges =   0.00000
 Mulliken charges with hydrogens summed into heavy atoms:
               1
     5  S   -0.008554
     6  S    0.008554
 Electronic spatial extent (au):  <R**2>=            609.1540
 Charge=              0.0000 electrons
 Dipole moment (field-independent basis, Debye):
    X=              1.2956    Y=             -0.2409    Z=             -0.0006  Tot=              1.3178
 Quadrupole moment (field-independent basis, Debye-Ang):
   XX=            -26.3059   YY=            -24.0294   ZZ=            -24.5697
   XY=             -4.2457   XZ=             -0.0035   YZ=             -0.0005
 Traceless Quadrupole moment (field-independent basis, Debye-Ang):
   XX=             -1.3375   YY=              0.9389   ZZ=              0.3986
   XY=             -4.2457   XZ=             -0.0035   YZ=             -0.0005
 Octapole moment (field-independent basis, Debye-Ang**2):
  XXX=              6.3552  YYY=             -0.1825  ZZZ=              0.0005  XYY=             -0.9170
  XXY=             -1.1089  XXZ=             -0.0053  XZZ=              3.7397  YZZ=              0.1701
  YYZ=             -0.0003  XYZ=             -0.0032
 Hexadecapole moment (field-independent basis, Debye-Ang**3):
 XXXX=           -652.7099 YYYY=            -34.3089 ZZZZ=            -30.1437 XXXY=            -23.4627
 XXXZ=             -0.0200 YYYX=              0.5941 YYYZ=             -0.0008 ZZZX=              0.0001
 ZZZY=              0.0006 XXYY=           -110.4082 XXZZ=           -111.7555 YYZZ=            -10.6223
 XXYZ=             -0.0021 YYXZ=              0.0000 ZZXY=              0.0307
 N-N= 6.835920006939D+01 E-N=-2.012156576648D+03  KE= 7.793844433345D+02
 1\1\GINC-LEGION\FOpt\RHF\STO-3G\H4S2\HIMANSHU\18-Feb-2025\0\\# opt hf/
 sto-3g geom=connectivity\\Title Card Required\\0,1\H,-0.8552021548,0.0
 741633143,-0.0379756973\H,-2.3481215966,-1.0258771691,0.4667607481\H,2
 .2769590438,0.0961706546,-1.1029394852\H,2.2761417435,0.8973301619,0.6
 435859924\S,-2.1802826679,0.1713965414,-0.0833371954\S,1.8888282019,-0
 .259314763,0.1169614575\\Version=AM64L-G09RevD.01\State=1-A\HF=-788.62
 43021\RMSD=9.419e-10\RMSF=6.133e-06\Dipole=0.5151385,0.0536062,-0.0240
 922\Quadrupole=-0.5438981,0.2569354,0.2869627,2.9480115,-1.3538328,0.0
 193097\PG=C01 [X(H4S2)]\\@


 YOU CAN LEAD A BOY TO COLLEGE....
 BUT YOU CANNOT MAKE HIM THINK....
           ELBERT HUBBARD
 Job cpu time:       0 days  0 hours  0 minutes 16.8 seconds.
 File lengths (MBytes):  RWF=      5 Int=      0 D2E=      0 Chk=      1 Scr=      1
 Normal termination of Gaussian 09 at Tue Feb 18 22:39:43 2025.
