 Entering Gaussian System, Link 0=g09
 Input=/home/himanshu/git/molecular-modeling/a1/q5/water_dimer.com
 Output=/home/himanshu/git/molecular-modeling/a1/q5/water_dimer.log
 Initial command:
 /home/himanshu/work/Gview_and_Gaussian/g09/l1.exe "/home/himanshu/work/Gview_and_Gaussian/g09/scratch/Gau-174674.inp" -scrdir="/home/himanshu/work/Gview_and_Gaussian/g09/scratch/"
 Entering Link 1 = /home/himanshu/work/Gview_and_Gaussian/g09/l1.exe PID=    174676.
  
 Copyright (c) 1988,1990,1992,1993,1995,1998,2003,2009,2013,
            Gaussian, Inc.  All Rights Reserved.
  
 This is part of the Gaussian(R) 09 program.  It is based on
 the Gaussian(R) 03 system (copyright 2003, Gaussian, Inc.),
 the Gaussian(R) 98 system (copyright 1998, Gaussian, Inc.),
 the Gaussian(R) 94 system (copyright 1995, Gaussian, Inc.),
 the Gaussian 92(TM) system (copyright 1992, Gaussian, Inc.),
 the Gaussian 90(TM) system (copyright 1990, Gaussian, Inc.),
 the Gaussian 88(TM) system (copyright 1988, Gaussian, Inc.),
 the Gaussian 86(TM) system (copyright 1986, Carnegie Mellon
 University), and the Gaussian 82(TM) system (copyright 1983,
 Carnegie Mellon University). Gaussian is a federally registered
 trademark of Gaussian, Inc.
  
 This software contains proprietary and confidential information,
 including trade secrets, belonging to Gaussian, Inc.
  
 This software is provided under written license and may be
 used, copied, transmitted, or stored only in accord with that
 written license.
  
 The following legend is applicable only to US Government
 contracts under FAR:
  
                    RESTRICTED RIGHTS LEGEND
  
 Use, reproduction and disclosure by the US Government is
 subject to restrictions as set forth in subparagraphs (a)
 and (c) of the Commercial Computer Software - Restricted
 Rights clause in FAR 52.227-19.
  
 Gaussian, Inc.
 340 Quinnipiac St., Bldg. 40, Wallingford CT 06492
  
  
 ---------------------------------------------------------------
 Warning -- This program may not be used in any manner that
 competes with the business of Gaussian, Inc. or will provide
 assistance to any competitor of Gaussian, Inc.  The licensee
 of this program is prohibited from giving any competitor of
 Gaussian, Inc. access to this program.  By using this program,
 the user acknowledges that Gaussian, Inc. is engaged in the
 business of creating and licensing software in the field of
 computational chemistry and represents and warrants to the
 licensee that it is not a competitor of Gaussian, Inc. and that
 it will not use this program in any manner prohibited above.
 ---------------------------------------------------------------
  

 Cite this work as:
 Gaussian 09, Revision D.01,
 M. J. Frisch, G. W. Trucks, H. B. Schlegel, G. E. Scuseria, 
 M. A. Robb, J. R. Cheeseman, G. Scalmani, V. Barone, B. Mennucci, 
 G. A. Petersson, H. Nakatsuji, M. Caricato, X. Li, H. P. Hratchian, 
 A. F. Izmaylov, J. Bloino, G. Zheng, J. L. Sonnenberg, M. Hada, 
 M. Ehara, K. Toyota, R. Fukuda, J. Hasegawa, M. Ishida, T. Nakajima, 
 Y. Honda, O. Kitao, H. Nakai, T. Vreven, J. A. Montgomery, Jr., 
 J. E. Peralta, F. Ogliaro, M. Bearpark, J. J. Heyd, E. Brothers, 
 K. N. Kudin, V. N. Staroverov, T. Keith, R. Kobayashi, J. Normand, 
 K. Raghavachari, A. Rendell, J. C. Burant, S. S. Iyengar, J. Tomasi, 
 M. Cossi, N. Rega, J. M. Millam, M. Klene, J. E. Knox, J. B. Cross, 
 V. Bakken, C. Adamo, J. Jaramillo, R. Gomperts, R. E. Stratmann, 
 O. Yazyev, A. J. Austin, R. Cammi, C. Pomelli, J. W. Ochterski, 
 R. L. Martin, K. Morokuma, V. G. Zakrzewski, G. A. Voth, 
 P. Salvador, J. J. Dannenberg, S. Dapprich, A. D. Daniels, 
 O. Farkas, J. B. Foresman, J. V. Ortiz, J. Cioslowski, 
 and D. J. Fox, Gaussian, Inc., Wallingford CT, 2013.
 
 ******************************************
 Gaussian 09:  AM64L-G09RevD.01 24-Apr-2013
                18-Feb-2025 
 ******************************************
 %chk=water_dimer.chk
 ---------------------------------
 # opt hf/sto-3g geom=connectivity
 ---------------------------------
 1/18=20,19=15,38=1,57=2/1,3;
 2/9=110,12=2,17=6,18=5,40=1/2;
 3/6=3,11=9,16=1,25=1,30=1,71=1/1,2,3;
 4//1;
 5/5=2,38=5/2;
 6/7=2,8=2,9=2,10=2,28=1/1;
 7//1,2,3,16;
 1/18=20,19=15/3(2);
 2/9=110/2;
 99//99;
 2/9=110/2;
 3/6=3,11=9,16=1,25=1,30=1,71=1/1,2,3;
 4/5=5,16=3,69=1/1;
 5/5=2,38=5/2;
 7//1,2,3,16;
 1/18=20,19=15/3(-5);
 2/9=110/2;
 6/7=2,8=2,9=2,10=2,19=2,28=1/1;
 99/9=1/99;
 -------------------
 Title Card Required
 -------------------
 Symbolic Z-matrix:
 Charge =  0 Multiplicity = 1
 O                    -2.18163   0.46451   0. 
 H                    -1.22163   0.46451   0. 
 H                    -2.50208   1.36945   0. 
 O                     0.28338   1.17141   0.13778 
 H                     0.47722   0.33998   0.57681 
 H                     0.72445   1.19417  -0.71459 
 
 Add virtual bond connecting atoms O4         and H2         Dist= 3.15D+00.
 Add virtual bond connecting atoms H5         and H2         Dist= 3.40D+00.

 GradGradGradGradGradGradGradGradGradGradGradGradGradGradGradGradGradGrad
 Berny optimization.
 Initialization pass.
                           ----------------------------
                           !    Initial Parameters    !
                           ! (Angstroms and Degrees)  !
 --------------------------                            --------------------------
 ! Name  Definition              Value          Derivative Info.                !
 --------------------------------------------------------------------------------
 ! R1    R(1,2)                  0.96           estimate D2E/DX2                !
 ! R2    R(1,3)                  0.96           estimate D2E/DX2                !
 ! R3    R(2,4)                  1.6685         estimate D2E/DX2                !
 ! R4    R(2,5)                  1.7984         estimate D2E/DX2                !
 ! R5    R(4,5)                  0.96           estimate D2E/DX2                !
 ! R6    R(4,6)                  0.96           estimate D2E/DX2                !
 ! A1    A(2,1,3)              109.5            estimate D2E/DX2                !
 ! A2    A(1,2,4)              154.4271         estimate D2E/DX2                !
 ! A3    A(1,2,5)              160.8453         estimate D2E/DX2                !
 ! A4    A(2,4,6)              110.5586         estimate D2E/DX2                !
 ! A5    A(5,4,6)              109.5            estimate D2E/DX2                !
 ! D1    D(3,1,2,4)             11.0291         estimate D2E/DX2                !
 ! D2    D(3,1,2,5)            102.1827         estimate D2E/DX2                !
 ! D3    D(1,2,4,6)           -110.6735         estimate D2E/DX2                !
 ! D4    D(2,4,5,6)            108.9042         estimate D2E/DX2                !
 --------------------------------------------------------------------------------
 Trust Radius=3.00D-01 FncErr=1.00D-07 GrdErr=1.00D-07
 Number of steps in this run=     25 maximum allowed number of steps=    100.
 GradGradGradGradGradGradGradGradGradGradGradGradGradGradGradGradGradGrad

                          Input orientation:                          
 ---------------------------------------------------------------------
 Center     Atomic      Atomic             Coordinates (Angstroms)
 Number     Number       Type             X           Y           Z
 ---------------------------------------------------------------------
      1          8           0       -2.181628    0.464509    0.000000
      2          1           0       -1.221628    0.464509    0.000000
      3          1           0       -2.502083    1.369445    0.000000
      4          8           0        0.283379    1.171412    0.137781
      5          1           0        0.477224    0.339981    0.576809
      6          1           0        0.724454    1.194170   -0.714590
 ---------------------------------------------------------------------
                    Distance matrix (angstroms):
                    1          2          3          4          5
     1  O    0.000000
     2  H    0.960000   0.000000
     3  H    0.960000   1.567952   0.000000
     4  O    2.568065   1.668455   2.795890   0.000000
     5  H    2.723548   1.798421   3.204493   0.960000   0.000000
     6  H    3.080317   2.197789   3.309365   0.960000   1.567952
                    6
     6  H    0.000000
 Stoichiometry    H4O2
 Framework group  C1[X(H4O2)]
 Deg. of freedom    12
 Full point group                 C1      NOp   1
 Largest Abelian subgroup         C1      NOp   1
 Largest concise Abelian subgroup C1      NOp   1
                         Standard orientation:                         
 ---------------------------------------------------------------------
 Center     Atomic      Atomic             Coordinates (Angstroms)
 Number     Number       Type             X           Y           Z
 ---------------------------------------------------------------------
      1          8           0       -1.342557    0.078446    0.047641
      2          1           0       -0.402409    0.243678    0.149717
      3          1           0       -1.474989   -0.788086   -0.343748
      4          8           0        1.216948   -0.074886   -0.095111
      5          1           0        1.252142    0.883072   -0.146854
      6          1           0        1.630129   -0.367141    0.720651
 ---------------------------------------------------------------------
 Rotational constants (GHZ):    195.7479374      8.4218173      8.2933200
 Standard basis: STO-3G (5D, 7F)
 There are    14 symmetry adapted cartesian basis functions of A   symmetry.
 There are    14 symmetry adapted basis functions of A   symmetry.
    14 basis functions,    42 primitive gaussians,    14 cartesian basis functions
    10 alpha electrons       10 beta electrons
       nuclear repulsion energy        39.3423850468 Hartrees.
 NAtoms=    6 NActive=    6 NUniq=    6 SFac= 1.00D+00 NAtFMM=   60 NAOKFM=F Big=F
 Integral buffers will be    131072 words long.
 Raffenetti 1 integral format.
 Two-electron integral symmetry is turned on.
 One-electron integrals computed using PRISM.
 NBasis=    14 RedAO= T EigKep=  3.26D-01  NBF=    14
 NBsUse=    14 1.00D-06 EigRej= -1.00D+00 NBFU=    14
 ExpMin= 1.69D-01 ExpMax= 1.31D+02 ExpMxC= 1.31D+02 IAcc=1 IRadAn=         1 AccDes= 0.00D+00
 Harris functional with IExCor=  205 and IRadAn=       1 diagonalized for initial guess.
 HarFok:  IExCor=  205 AccDes= 0.00D+00 IRadAn=         1 IDoV= 1 UseB2=F ITyADJ=14
 ICtDFT=  3500011 ScaDFX=  1.000000  1.000000  1.000000  1.000000
 FoFCou: FMM=F IPFlag=           0 FMFlag=      100000 FMFlg1=           0
         NFxFlg=           0 DoJE=T BraDBF=F KetDBF=T FulRan=T
         wScrn=  0.000000 ICntrl=     500 IOpCl=  0 I1Cent=   200000004 NGrid=           0
         NMat0=    1 NMatS0=      1 NMatT0=    0 NMatD0=    1 NMtDS0=    0 NMtDT0=    0
 Petite list used in FoFCou.
 Keep R1 ints in memory in canonical form, NReq=831350.
 Requested convergence on RMS density matrix=1.00D-08 within 128 cycles.
 Requested convergence on MAX density matrix=1.00D-06.
 Requested convergence on             energy=1.00D-06.
 No special actions if energy rises.
 SCF Done:  E(RHF) =  -149.923947602     A.U. after   10 cycles
            NFock= 10  Conv=0.38D-08     -V/T= 2.0045

 **********************************************************************

            Population analysis using the SCF density.

 **********************************************************************

 Orbital symmetries:
       Occupied  (A) (A) (A) (A) (A) (A) (A) (A) (A) (A)
       Virtual   (A) (A) (A) (A)
 The electronic state is 1-A.
 Alpha  occ. eigenvalues --  -20.28740 -20.16773  -1.31092  -1.21525  -0.67017
 Alpha  occ. eigenvalues --   -0.59661  -0.48889  -0.44639  -0.36780  -0.34134
 Alpha virt. eigenvalues --    0.54683   0.67548   0.71367   0.84780
          Condensed to atoms (all electrons):
               1          2          3          4          5          6
     1  O    7.898043   0.267328   0.266741  -0.008223  -0.000549   0.000411
     2  H    0.267328   0.562891  -0.045087   0.014539  -0.006758  -0.001989
     3  H    0.266741  -0.045087   0.613222   0.000945   0.000092  -0.000040
     4  O   -0.008223   0.014539   0.000945   7.822858   0.268341   0.268509
     5  H   -0.000549  -0.006758   0.000092   0.268341   0.572743  -0.042638
     6  H    0.000411  -0.001989  -0.000040   0.268509  -0.042638   0.566997
 Mulliken charges:
               1
     1  O   -0.423751
     2  H    0.209076
     3  H    0.164127
     4  O   -0.366969
     5  H    0.208768
     6  H    0.208750
 Sum of Mulliken charges =   0.00000
 Mulliken charges with hydrogens summed into heavy atoms:
               1
     1  O   -0.050548
     4  O    0.050548
 Electronic spatial extent (au):  <R**2>=            150.6283
 Charge=              0.0000 electrons
 Dipole moment (field-independent basis, Debye):
    X=              2.6424    Y=              0.0644    Z=              0.8150  Tot=              2.7660
 Quadrupole moment (field-independent basis, Debye-Ang):
   XX=            -12.3881   YY=             -9.6427   ZZ=            -11.0584
   XY=              2.9109   XZ=              2.8120   YZ=             -0.1891
 Traceless Quadrupole moment (field-independent basis, Debye-Ang):
   XX=             -1.3584   YY=              1.3870   ZZ=             -0.0287
   XY=              2.9109   XZ=              2.8120   YZ=             -0.1891
 Octapole moment (field-independent basis, Debye-Ang**2):
  XXX=              8.0433  YYY=              0.3942  ZZZ=              0.4647  XYY=              0.6923
  XXY=             -1.8348  XXZ=              1.8620  XZZ=              1.1838  YZZ=             -0.2543
  YYZ=             -0.1873  XYZ=             -1.5133
 Hexadecapole moment (field-independent basis, Debye-Ang**3):
 XXXX=           -119.9621 YYYY=            -10.7346 ZZZZ=             -8.5777 XXXY=              4.9611
 XXXZ=              7.1111 YYYX=              1.5842 YYYZ=              0.0704 ZZZX=              0.9120
 ZZZY=             -0.1711 XXYY=            -18.7336 XXZZ=            -20.1294 YYZZ=             -3.3274
 XXYZ=             -0.5547 YYXZ=              0.3463 ZZXY=             -0.2529
 N-N= 3.934238504680D+01 E-N=-4.360050027274D+02  KE= 1.492573379301D+02
 Calling FoFJK, ICntrl=      2127 FMM=F ISym2X=0 I1Cent= 0 IOpClX= 0 NMat=1 NMatS=1 NMatT=0.
 ***** Axes restored to original set *****
 -------------------------------------------------------------------
 Center     Atomic                   Forces (Hartrees/Bohr)
 Number     Number              X              Y              Z
 -------------------------------------------------------------------
      1        8          -0.048667985   -0.063412124   -0.001560369
      2        1           0.018195114    0.032904146   -0.001792340
      3        1           0.012211535    0.033169386    0.000411013
      4        8          -0.032491795    0.043512401    0.025329318
      5        1           0.028036723   -0.028854962    0.000251366
      6        1           0.022716408   -0.017318848   -0.022638988
 -------------------------------------------------------------------
 Cartesian Forces:  Max     0.063412124 RMS     0.029435818

 GradGradGradGradGradGradGradGradGradGradGradGradGradGradGradGradGradGrad
 Berny optimization.
 FormGI is forming the generalized inverse of G from B-inverse, IUseBI=4.
 Internal  Forces:  Max     0.040969144 RMS     0.020543198
 Search for a local minimum.
 Step number   1 out of a maximum of   25
 All quantities printed in internal units (Hartrees-Bohrs-Radians)
 Mixed Optimization -- RFO/linear search
 Second derivative matrix not updated -- first step.
 The second derivative matrix:
                          R1        R2        R3        R4        R5
           R1           0.55473
           R2           0.00000   0.55473
           R3           0.00000   0.00000   0.07891
           R4           0.00000   0.00000   0.00000   0.03588
           R5           0.00000   0.00000   0.00000   0.00000   0.55473
           R6           0.00000   0.00000   0.00000   0.00000   0.00000
           A1           0.00000   0.00000   0.00000   0.00000   0.00000
           A2           0.00000   0.00000   0.00000   0.00000   0.00000
           A3           0.00000   0.00000   0.00000   0.00000   0.00000
           A4           0.00000   0.00000   0.00000   0.00000   0.00000
           A5           0.00000   0.00000   0.00000   0.00000   0.00000
           D1           0.00000   0.00000   0.00000   0.00000   0.00000
           D2           0.00000   0.00000   0.00000   0.00000   0.00000
           D3           0.00000   0.00000   0.00000   0.00000   0.00000
           D4           0.00000   0.00000   0.00000   0.00000   0.00000
                          R6        A1        A2        A3        A4
           R6           0.55473
           A1           0.00000   0.16000
           A2           0.00000   0.00000   0.25000
           A3           0.00000   0.00000   0.00000   0.16000
           A4           0.00000   0.00000   0.00000   0.00000   0.16000
           A5           0.00000   0.00000   0.00000   0.00000   0.00000
           D1           0.00000   0.00000   0.00000   0.00000   0.00000
           D2           0.00000   0.00000   0.00000   0.00000   0.00000
           D3           0.00000   0.00000   0.00000   0.00000   0.00000
           D4           0.00000   0.00000   0.00000   0.00000   0.00000
                          A5        D1        D2        D3        D4
           A5           0.16000
           D1           0.00000   0.01558
           D2           0.00000   0.00000   0.01558
           D3           0.00000   0.00000   0.00000   0.00230
           D4           0.00000   0.00000   0.00000   0.00000   0.01558
 ITU=  0
     Eigenvalues ---    0.01558   0.02111   0.03272   0.06805   0.07430
     Eigenvalues ---    0.09172   0.16000   0.16928   0.52407   0.55473
     Eigenvalues ---    0.55473   0.55473
 RFO step:  Lambda=-2.52981574D-02 EMin= 1.55750542D-02
 Linear search not attempted -- first point.
 Maximum step size (   0.300) exceeded in Quadratic search.
    -- Step size scaled by   0.803
 Iteration  1 RMS(Cart)=  0.06681261 RMS(Int)=  0.00671968
 Iteration  2 RMS(Cart)=  0.00581234 RMS(Int)=  0.00137361
 Iteration  3 RMS(Cart)=  0.00002809 RMS(Int)=  0.00137329
 Iteration  4 RMS(Cart)=  0.00000003 RMS(Int)=  0.00137329
 Variable       Old X    -DE/DX   Delta X   Delta X   Delta X     New X
                                 (Linear)    (Quad)   (Total)
    R1        1.81414   0.03646   0.00000   0.05044   0.05044   1.86458
    R2        1.81414   0.02719   0.00000   0.03762   0.03762   1.85176
    R3        3.15292   0.00452   0.00000   0.03810   0.03780   3.19073
    R4        3.39852   0.01548   0.00000   0.16839   0.16877   3.56730
    R5        1.81414   0.02099   0.00000   0.03489   0.03465   1.84878
    R6        1.81414   0.03013   0.00000   0.04169   0.04169   1.85582
    A1        1.91114  -0.04097   0.00000  -0.17744  -0.17744   1.73369
    A2        2.69526  -0.00505   0.00000   0.02891   0.02897   2.72423
    A3        2.80728   0.00550   0.00000   0.01435   0.01380   2.82108
    A4        1.92961   0.00027   0.00000   0.00321   0.00695   1.93656
    A5        1.91114  -0.02695   0.00000  -0.14348  -0.14378   1.76736
    D1        0.19249  -0.00736   0.00000  -0.04205  -0.04201   0.15048
    D2        1.78343   0.00665   0.00000   0.02825   0.02821   1.81163
    D3       -1.93162  -0.00954   0.00000  -0.10954  -0.10928  -2.04090
    D4        1.90074   0.00189   0.00000   0.03228   0.02861   1.92934
         Item               Value     Threshold  Converged?
 Maximum Force            0.040969     0.000450     NO 
 RMS     Force            0.020543     0.000300     NO 
 Maximum Displacement     0.123074     0.001800     NO 
 RMS     Displacement     0.068915     0.001200     NO 
 Predicted change in Energy=-1.348109D-02
 GradGradGradGradGradGradGradGradGradGradGradGradGradGradGradGradGradGrad

                          Input orientation:                          
 ---------------------------------------------------------------------
 Center     Atomic      Atomic             Coordinates (Angstroms)
 Number     Number       Type             X           Y           Z
 ---------------------------------------------------------------------
      1          8           0       -2.246756    0.426006   -0.026181
      2          1           0       -1.260980    0.467346   -0.016226
      3          1           0       -2.446560    1.383619    0.031067
      4          8           0        0.251623    1.200553    0.142943
      5          1           0        0.530633    0.365580    0.569689
      6          1           0        0.751758    1.160922   -0.701293
 ---------------------------------------------------------------------
                    Distance matrix (angstroms):
                    1          2          3          4          5
     1  O    0.000000
     2  H    0.986693   0.000000
     3  H    0.979909   1.499130   0.000000
     4  O    2.621150   1.688460   2.706700   0.000000
     5  H    2.841233   1.887732   3.192209   0.978335   0.000000
     6  H    3.160216   2.236398   3.288645   0.982059   1.515539
                    6
     6  H    0.000000
 Stoichiometry    H4O2
 Framework group  C1[X(H4O2)]
 Deg. of freedom    12
 Full point group                 C1      NOp   1
 Largest Abelian subgroup         C1      NOp   1
 Largest concise Abelian subgroup C1      NOp   1
                         Standard orientation:                         
 ---------------------------------------------------------------------
 Center     Atomic      Atomic             Coordinates (Angstroms)
 Number     Number       Type             X           Y           Z
 ---------------------------------------------------------------------
      1          8           0       -1.382919    0.084805    0.042259
      2          1           0       -0.412295    0.245889    0.116445
      3          1           0       -1.366124   -0.837238   -0.289064
      4          8           0        1.228866   -0.094513   -0.087548
      5          1           0        1.333827    0.865277   -0.245423
      6          1           0        1.677013   -0.196263    0.780353
 ---------------------------------------------------------------------
 Rotational constants (GHZ):    190.6047218      8.1046811      7.9923469
 Standard basis: STO-3G (5D, 7F)
 There are    14 symmetry adapted cartesian basis functions of A   symmetry.
 There are    14 symmetry adapted basis functions of A   symmetry.
    14 basis functions,    42 primitive gaussians,    14 cartesian basis functions
    10 alpha electrons       10 beta electrons
       nuclear repulsion energy        38.6161405497 Hartrees.
 NAtoms=    6 NActive=    6 NUniq=    6 SFac= 1.00D+00 NAtFMM=   60 NAOKFM=F Big=F
 Integral buffers will be    131072 words long.
 Raffenetti 1 integral format.
 Two-electron integral symmetry is turned on.
 One-electron integrals computed using PRISM.
 NBasis=    14 RedAO= T EigKep=  3.43D-01  NBF=    14
 NBsUse=    14 1.00D-06 EigRej= -1.00D+00 NBFU=    14
 Initial guess from the checkpoint file:  "water_dimer.chk"
 B after Tr=     0.000000    0.000000    0.000000
         Rot=    0.997803    0.066210    0.001164   -0.001913 Ang=   7.60 deg.
 ExpMin= 1.69D-01 ExpMax= 1.31D+02 ExpMxC= 1.31D+02 IAcc=1 IRadAn=         1 AccDes= 0.00D+00
 Harris functional with IExCor=  205 and IRadAn=       1 diagonalized for initial guess.
 HarFok:  IExCor=  205 AccDes= 0.00D+00 IRadAn=         1 IDoV= 1 UseB2=F ITyADJ=14
 ICtDFT=  3500011 ScaDFX=  1.000000  1.000000  1.000000  1.000000
 FoFCou: FMM=F IPFlag=           0 FMFlag=      100000 FMFlg1=           0
         NFxFlg=           0 DoJE=T BraDBF=F KetDBF=T FulRan=T
         wScrn=  0.000000 ICntrl=     500 IOpCl=  0 I1Cent=   200000004 NGrid=           0
         NMat0=    1 NMatS0=      1 NMatT0=    0 NMatD0=    1 NMtDS0=    0 NMtDT0=    0
 Petite list used in FoFCou.
 Keep R1 ints in memory in canonical form, NReq=831336.
 Requested convergence on RMS density matrix=1.00D-08 within 128 cycles.
 Requested convergence on MAX density matrix=1.00D-06.
 Requested convergence on             energy=1.00D-06.
 No special actions if energy rises.
 SCF Done:  E(RHF) =  -149.935667255     A.U. after   10 cycles
            NFock= 10  Conv=0.83D-08     -V/T= 2.0052
 Calling FoFJK, ICntrl=      2127 FMM=F ISym2X=0 I1Cent= 0 IOpClX= 0 NMat=1 NMatS=1 NMatT=0.
 ***** Axes restored to original set *****
 -------------------------------------------------------------------
 Center     Atomic                   Forces (Hartrees/Bohr)
 Number     Number              X              Y              Z
 -------------------------------------------------------------------
      1        8          -0.002612715   -0.012680277   -0.001716868
      2        1          -0.007240917    0.005729685   -0.001468657
      3        1          -0.003538949    0.008716635    0.000820049
      4        8          -0.001737487    0.006068562    0.001361254
      5        1           0.011202970   -0.007231764    0.006081366
      6        1           0.003927099   -0.000602841   -0.005077144
 -------------------------------------------------------------------
 Cartesian Forces:  Max     0.012680277 RMS     0.005987056

 GradGradGradGradGradGradGradGradGradGradGradGradGradGradGradGradGradGrad
 Berny optimization.
 Using GEDIIS/GDIIS optimizer.
 FormGI is forming the generalized inverse of G from B-inverse, IUseBI=4.
 Internal  Forces:  Max     0.010531345 RMS     0.004926046
 Search for a local minimum.
 Step number   2 out of a maximum of   25
 All quantities printed in internal units (Hartrees-Bohrs-Radians)
 Mixed Optimization -- RFO/linear search
 Update second derivatives using D2CorX and points    1    2
 DE= -1.17D-02 DEPred=-1.35D-02 R= 8.69D-01
 TightC=F SS=  1.41D+00  RLast= 3.25D-01 DXNew= 5.0454D-01 9.7382D-01
 Trust test= 8.69D-01 RLast= 3.25D-01 DXMaxT set to 5.05D-01
 The second derivative matrix:
                          R1        R2        R3        R4        R5
           R1           0.54931
           R2          -0.01194   0.54114
           R3          -0.00428  -0.00347   0.07833
           R4          -0.00388  -0.00419  -0.00102   0.03459
           R5          -0.01272  -0.01354  -0.00326  -0.00414   0.54137
           R6          -0.00650  -0.01106  -0.00361  -0.00354  -0.01155
           A1          -0.01779  -0.00173   0.00352   0.00011   0.00094
           A2          -0.02893  -0.01944  -0.00208  -0.00553  -0.01744
           A3           0.00872   0.00449  -0.00001   0.00120   0.00370
           A4          -0.00216  -0.00163  -0.00024  -0.00047  -0.00150
           A5          -0.00111   0.00650   0.00332   0.00228   0.00759
           D1          -0.00644  -0.00362  -0.00013  -0.00099  -0.00308
           D2           0.00665   0.00381   0.00017   0.00105   0.00326
           D3          -0.01221  -0.00717  -0.00040  -0.00198  -0.00618
           D4           0.00103   0.00047  -0.00003   0.00012   0.00037
                          R6        A1        A2        A3        A4
           R6           0.54778
           A1          -0.01176   0.21212
           A2          -0.02337   0.03566   0.24996
           A3           0.00669  -0.01478  -0.00476   0.16302
           A4          -0.00179   0.00213  -0.00062  -0.00015   0.15991
           A5           0.00095   0.02278   0.02529  -0.00859   0.00176
           D1          -0.00502   0.01002   0.00245  -0.00188   0.00003
           D2           0.00520  -0.01013  -0.00228   0.00185  -0.00002
           D3          -0.00960   0.01808   0.00358  -0.00320  -0.00001
           D4           0.00078  -0.00192  -0.00076   0.00042  -0.00003
                          A5        D1        D2        D3        D4
           A5           0.16610
           D1           0.00613   0.01671
           D2          -0.00628  -0.00111   0.01666
           D3           0.01140   0.00189  -0.00184   0.00541
           D4          -0.00106  -0.00027   0.00027  -0.00047   0.01563
 ITU=  1  0
 Use linear search instead of GDIIS.
     Eigenvalues ---    0.01557   0.01954   0.03112   0.06468   0.07817
     Eigenvalues ---    0.08993   0.16653   0.23868   0.51354   0.53618
     Eigenvalues ---    0.55473   0.55925
 RFO step:  Lambda=-3.24770470D-03 EMin= 1.55734040D-02
 Quartic linear search produced a step of  0.15284.
 Iteration  1 RMS(Cart)=  0.05918440 RMS(Int)=  0.01575842
 Iteration  2 RMS(Cart)=  0.01524154 RMS(Int)=  0.00065377
 Iteration  3 RMS(Cart)=  0.00015462 RMS(Int)=  0.00061890
 Iteration  4 RMS(Cart)=  0.00000013 RMS(Int)=  0.00061890
 Variable       Old X    -DE/DX   Delta X   Delta X   Delta X     New X
                                 (Linear)    (Quad)   (Total)
    R1        1.86458   0.00632   0.00771   0.00938   0.01709   1.88167
    R2        1.85176   0.00929   0.00575   0.01639   0.02214   1.87390
    R3        3.19073   0.00345   0.00578   0.04425   0.05010   3.24083
    R4        3.56730   0.01053   0.02580   0.23529   0.26071   3.82800
    R5        1.84878   0.00551   0.00530   0.01349   0.01945   1.86824
    R6        1.85582   0.00639   0.00637   0.01015   0.01652   1.87234
    A1        1.73369   0.00311  -0.02712   0.03907   0.01195   1.74564
    A2        2.72423   0.00310   0.00443   0.04327   0.04926   2.77349
    A3        2.82108  -0.00218   0.00211  -0.00452  -0.00099   2.82009
    A4        1.93656   0.00020   0.00106   0.00286   0.00360   1.94016
    A5        1.76736   0.00106  -0.02197   0.00938  -0.01263   1.75473
    D1        0.15048  -0.00285  -0.00642  -0.01744  -0.02338   0.12710
    D2        1.81163   0.00228   0.00431  -0.01199  -0.00815   1.80348
    D3       -2.04090  -0.00217  -0.01670   0.00535  -0.01136  -2.05226
    D4        1.92934   0.00076   0.00437   0.02432   0.02901   1.95835
         Item               Value     Threshold  Converged?
 Maximum Force            0.010531     0.000450     NO 
 RMS     Force            0.004926     0.000300     NO 
 Maximum Displacement     0.185878     0.001800     NO 
 RMS     Displacement     0.072202     0.001200     NO 
 Predicted change in Energy=-1.995393D-03
 GradGradGradGradGradGradGradGradGradGradGradGradGradGradGradGradGradGrad

                          Input orientation:                          
 ---------------------------------------------------------------------
 Center     Atomic      Atomic             Coordinates (Angstroms)
 Number     Number       Type             X           Y           Z
 ---------------------------------------------------------------------
      1          8           0       -2.284722    0.427988   -0.055306
      2          1           0       -1.290897    0.486760   -0.036586
      3          1           0       -2.516292    1.385747    0.056009
      4          8           0        0.267970    1.178729    0.142982
      5          1           0        0.628995    0.380250    0.600668
      6          1           0        0.774663    1.144553   -0.707768
 ---------------------------------------------------------------------
                    Distance matrix (angstroms):
                    1          2          3          4          5
     1  O    0.000000
     2  H    0.995736   0.000000
     3  H    0.991624   1.522610   0.000000
     4  O    2.668176   1.714973   2.793301   0.000000
     5  H    2.987027   2.025691   3.346716   0.988628   0.000000
     6  H    3.209207   2.269299   3.387022   0.990799   1.522295
                    6
     6  H    0.000000
 Stoichiometry    H4O2
 Framework group  C1[X(H4O2)]
 Deg. of freedom    12
 Full point group                 C1      NOp   1
 Largest Abelian subgroup         C1      NOp   1
 Largest concise Abelian subgroup C1      NOp   1
                         Standard orientation:                         
 ---------------------------------------------------------------------
 Center     Atomic      Atomic             Coordinates (Angstroms)
 Number     Number       Type             X           Y           Z
 ---------------------------------------------------------------------
      1          8           0       -1.410167    0.090681    0.047252
      2          1           0       -0.425373    0.222086    0.113630
      3          1           0       -1.436786   -0.824111   -0.334541
      4          8           0        1.248243   -0.095831   -0.084026
      5          1           0        1.460400    0.850262   -0.277114
      6          1           0        1.697148   -0.207030    0.792217
 ---------------------------------------------------------------------
 Rotational constants (GHZ):    188.9632723      7.7704699      7.6786333
 Standard basis: STO-3G (5D, 7F)
 There are    14 symmetry adapted cartesian basis functions of A   symmetry.
 There are    14 symmetry adapted basis functions of A   symmetry.
    14 basis functions,    42 primitive gaussians,    14 cartesian basis functions
    10 alpha electrons       10 beta electrons
       nuclear repulsion energy        37.9930569889 Hartrees.
 NAtoms=    6 NActive=    6 NUniq=    6 SFac= 1.00D+00 NAtFMM=   60 NAOKFM=F Big=F
 Integral buffers will be    131072 words long.
 Raffenetti 1 integral format.
 Two-electron integral symmetry is turned on.
 One-electron integrals computed using PRISM.
 NBasis=    14 RedAO= T EigKep=  3.52D-01  NBF=    14
 NBsUse=    14 1.00D-06 EigRej= -1.00D+00 NBFU=    14
 Initial guess from the checkpoint file:  "water_dimer.chk"
 B after Tr=     0.000000    0.000000    0.000000
         Rot=    0.999988   -0.003310    0.000554    0.003463 Ang=  -0.55 deg.
 ExpMin= 1.69D-01 ExpMax= 1.31D+02 ExpMxC= 1.31D+02 IAcc=1 IRadAn=         1 AccDes= 0.00D+00
 Harris functional with IExCor=  205 and IRadAn=       1 diagonalized for initial guess.
 HarFok:  IExCor=  205 AccDes= 0.00D+00 IRadAn=         1 IDoV= 1 UseB2=F ITyADJ=14
 ICtDFT=  3500011 ScaDFX=  1.000000  1.000000  1.000000  1.000000
 FoFCou: FMM=F IPFlag=           0 FMFlag=      100000 FMFlg1=           0
         NFxFlg=           0 DoJE=T BraDBF=F KetDBF=T FulRan=T
         wScrn=  0.000000 ICntrl=     500 IOpCl=  0 I1Cent=   200000004 NGrid=           0
         NMat0=    1 NMatS0=      1 NMatT0=    0 NMatD0=    1 NMtDS0=    0 NMtDT0=    0
 Petite list used in FoFCou.
 Keep R1 ints in memory in canonical form, NReq=831321.
 Requested convergence on RMS density matrix=1.00D-08 within 128 cycles.
 Requested convergence on MAX density matrix=1.00D-06.
 Requested convergence on             energy=1.00D-06.
 No special actions if energy rises.
 SCF Done:  E(RHF) =  -149.938316135     A.U. after   10 cycles
            NFock= 10  Conv=0.49D-08     -V/T= 2.0056
 Calling FoFJK, ICntrl=      2127 FMM=F ISym2X=0 I1Cent= 0 IOpClX= 0 NMat=1 NMatS=1 NMatT=0.
 ***** Axes restored to original set *****
 -------------------------------------------------------------------
 Center     Atomic                   Forces (Hartrees/Bohr)
 Number     Number              X              Y              Z
 -------------------------------------------------------------------
      1        8           0.004075544    0.000143424   -0.000580604
      2        1          -0.013622895    0.006382620   -0.000357017
      3        1           0.001800113   -0.004589834   -0.000291549
      4        8           0.006018820   -0.005599621   -0.002789893
      5        1           0.003626344    0.002820495    0.000898586
      6        1          -0.001897927    0.000842916    0.003120478
 -------------------------------------------------------------------
 Cartesian Forces:  Max     0.013622895 RMS     0.004589461

 GradGradGradGradGradGradGradGradGradGradGradGradGradGradGradGradGradGrad
 Berny optimization.
 Using GEDIIS/GDIIS optimizer.
 FormGI is forming the generalized inverse of G from B-inverse, IUseBI=4.
 Internal  Forces:  Max     0.006351767 RMS     0.003354220
 Search for a local minimum.
 Step number   3 out of a maximum of   25
 All quantities printed in internal units (Hartrees-Bohrs-Radians)
 Mixed Optimization -- RFO/linear search
 Update second derivatives using D2CorX and points    1    2    3
 DE= -2.65D-03 DEPred=-2.00D-03 R= 1.33D+00
 TightC=F SS=  1.41D+00  RLast= 2.76D-01 DXNew= 8.4853D-01 8.2834D-01
 Trust test= 1.33D+00 RLast= 2.76D-01 DXMaxT set to 8.28D-01
 The second derivative matrix:
                          R1        R2        R3        R4        R5
           R1           0.62748
           R2           0.06851   0.62362
           R3           0.00227   0.00253   0.07754
           R4           0.00307   0.00062  -0.00455   0.02257
           R5           0.04211   0.04211  -0.00011  -0.00376   0.57826
           R6           0.05586   0.05274   0.00096  -0.00003   0.03147
           A1          -0.01463   0.00234   0.00457   0.00262   0.00413
           A2          -0.07060  -0.06619  -0.01229  -0.02988  -0.05401
           A3           0.00204  -0.00302  -0.00155  -0.00236  -0.00208
           A4           0.00041   0.00102  -0.00002  -0.00022   0.00031
           A5          -0.02291  -0.01576   0.00152   0.00032  -0.00762
           D1          -0.01569  -0.01308  -0.00080  -0.00149  -0.00945
           D2           0.01617   0.01369   0.00112   0.00235   0.01010
           D3          -0.01875  -0.01357  -0.00043  -0.00100  -0.01020
           D4          -0.00254  -0.00352  -0.00085  -0.00180  -0.00271
                          R6        A1        A2        A3        A4
           R6           0.59720
           A1          -0.00886   0.21319
           A2          -0.05994   0.03749   0.23849
           A3           0.00088  -0.01481  -0.00601   0.16295
           A4           0.00026   0.00226  -0.00196  -0.00037   0.15999
           A5          -0.01643   0.02249   0.03682  -0.00686   0.00106
           D1          -0.01235   0.00961   0.00791  -0.00102  -0.00027
           D2           0.01287  -0.00985  -0.00661   0.00115   0.00029
           D3          -0.01456   0.01768   0.00960  -0.00231  -0.00022
           D4          -0.00233  -0.00185  -0.00147   0.00037  -0.00015
                          A5        D1        D2        D3        D4
           A5           0.17243
           D1           0.00872   0.01780
           D2          -0.00894  -0.00225   0.01780
           D3           0.01329   0.00263  -0.00269   0.00578
           D4          -0.00009   0.00019  -0.00011   0.00002   0.01560
 ITU=  1  1  0
 Use linear search instead of GDIIS.
     Eigenvalues ---    0.01480   0.01622   0.01758   0.05320   0.08071
     Eigenvalues ---    0.08990   0.16838   0.23975   0.53216   0.55447
     Eigenvalues ---    0.55805   0.78821
 RFO step:  Lambda=-2.17737499D-03 EMin= 1.47992229D-02
 Quartic linear search produced a step of  0.88423.
 Iteration  1 RMS(Cart)=  0.06110357 RMS(Int)=  0.05815928
 Iteration  2 RMS(Cart)=  0.05162843 RMS(Int)=  0.00735249
 Iteration  3 RMS(Cart)=  0.00642519 RMS(Int)=  0.00440861
 Iteration  4 RMS(Cart)=  0.00005588 RMS(Int)=  0.00440829
 Iteration  5 RMS(Cart)=  0.00000083 RMS(Int)=  0.00440829
 Variable       Old X    -DE/DX   Delta X   Delta X   Delta X     New X
                                 (Linear)    (Quad)   (Total)
    R1        1.88167  -0.00559   0.01511  -0.01775  -0.00264   1.87903
    R2        1.87390  -0.00489   0.01958  -0.01864   0.00093   1.87483
    R3        3.24083   0.00122   0.04430   0.01596   0.06258   3.30341
    R4        3.82800   0.00635   0.23053   0.19845   0.42530   4.25330
    R5        1.86824  -0.00459   0.01720  -0.01319   0.00827   1.87651
    R6        1.87234  -0.00368   0.01460  -0.01247   0.00214   1.87447
    A1        1.74564  -0.00128   0.01057  -0.03614  -0.02557   1.72007
    A2        2.77349   0.00477   0.04356   0.04819   0.09688   2.87038
    A3        2.82009  -0.00093  -0.00087  -0.00341   0.00548   2.82557
    A4        1.94016  -0.00028   0.00318   0.00394  -0.00088   1.93929
    A5        1.75473   0.00243  -0.01116   0.00391  -0.00919   1.74554
    D1        0.12710  -0.00144  -0.02067  -0.01282  -0.03215   0.09496
    D2        1.80348   0.00102  -0.00721  -0.02165  -0.03020   1.77328
    D3       -2.05226  -0.00124  -0.01005  -0.01033  -0.02156  -2.07382
    D4        1.95835   0.00113   0.02565   0.03165   0.06504   2.02340
         Item               Value     Threshold  Converged?
 Maximum Force            0.006352     0.000450     NO 
 RMS     Force            0.003354     0.000300     NO 
 Maximum Displacement     0.288338     0.001800     NO 
 RMS     Displacement     0.110747     0.001200     NO 
 Predicted change in Energy=-1.587329D-03
 GradGradGradGradGradGradGradGradGradGradGradGradGradGradGradGradGradGrad

                          Input orientation:                          
 ---------------------------------------------------------------------
 Center     Atomic      Atomic             Coordinates (Angstroms)
 Number     Number       Type             X           Y           Z
 ---------------------------------------------------------------------
      1          8           0       -2.337327    0.437132   -0.114150
      2          1           0       -1.347994    0.528123   -0.073484
      3          1           0       -2.580747    1.373810    0.104209
      4          8           0        0.280974    1.123479    0.145216
      5          1           0        0.781577    0.428951    0.648294
      6          1           0        0.783234    1.112531   -0.710084
 ---------------------------------------------------------------------
                    Distance matrix (angstroms):
                    1          2          3          4          5
     1  O    0.000000
     2  H    0.994341   0.000000
     3  H    0.992119   1.505471   0.000000
     4  O    2.719163   1.748089   2.872942   0.000000
     5  H    3.210756   2.250749   3.534687   0.993006   0.000000
     6  H    3.247954   2.299766   3.470981   0.991929   1.520683
                    6
     6  H    0.000000
 Stoichiometry    H4O2
 Framework group  C1[X(H4O2)]
 Deg. of freedom    12
 Full point group                 C1      NOp   1
 Largest Abelian subgroup         C1      NOp   1
 Largest concise Abelian subgroup C1      NOp   1
                         Standard orientation:                         
 ---------------------------------------------------------------------
 Center     Atomic      Atomic             Coordinates (Angstroms)
 Number     Number       Type             X           Y           Z
 ---------------------------------------------------------------------
      1          8           0       -1.443274    0.094655    0.056384
      2          1           0       -0.452954    0.169283    0.105498
      3          1           0       -1.502307   -0.769350   -0.427671
      4          8           0        1.266490   -0.087936   -0.076617
      5          1           0        1.669510    0.786814   -0.318377
      6          1           0        1.700023   -0.240499    0.802415
 ---------------------------------------------------------------------
 Rotational constants (GHZ):    196.2125277      7.4031204      7.3527086
 Standard basis: STO-3G (5D, 7F)
 There are    14 symmetry adapted cartesian basis functions of A   symmetry.
 There are    14 symmetry adapted basis functions of A   symmetry.
    14 basis functions,    42 primitive gaussians,    14 cartesian basis functions
    10 alpha electrons       10 beta electrons
       nuclear repulsion energy        37.4947992249 Hartrees.
 NAtoms=    6 NActive=    6 NUniq=    6 SFac= 1.00D+00 NAtFMM=   60 NAOKFM=F Big=F
 Integral buffers will be    131072 words long.
 Raffenetti 1 integral format.
 Two-electron integral symmetry is turned on.
 One-electron integrals computed using PRISM.
 NBasis=    14 RedAO= T EigKep=  3.54D-01  NBF=    14
 NBsUse=    14 1.00D-06 EigRej= -1.00D+00 NBFU=    14
 Initial guess from the checkpoint file:  "water_dimer.chk"
 B after Tr=     0.000000    0.000000    0.000000
         Rot=    0.999871   -0.015263    0.001687    0.004703 Ang=  -1.84 deg.
 ExpMin= 1.69D-01 ExpMax= 1.31D+02 ExpMxC= 1.31D+02 IAcc=1 IRadAn=         1 AccDes= 0.00D+00
 Harris functional with IExCor=  205 and IRadAn=       1 diagonalized for initial guess.
 HarFok:  IExCor=  205 AccDes= 0.00D+00 IRadAn=         1 IDoV= 1 UseB2=F ITyADJ=14
 ICtDFT=  3500011 ScaDFX=  1.000000  1.000000  1.000000  1.000000
 FoFCou: FMM=F IPFlag=           0 FMFlag=      100000 FMFlg1=           0
         NFxFlg=           0 DoJE=T BraDBF=F KetDBF=T FulRan=T
         wScrn=  0.000000 ICntrl=     500 IOpCl=  0 I1Cent=   200000004 NGrid=           0
         NMat0=    1 NMatS0=      1 NMatT0=    0 NMatD0=    1 NMtDS0=    0 NMtDT0=    0
 Petite list used in FoFCou.
 Keep R1 ints in memory in canonical form, NReq=831278.
 Requested convergence on RMS density matrix=1.00D-08 within 128 cycles.
 Requested convergence on MAX density matrix=1.00D-06.
 Requested convergence on             energy=1.00D-06.
 No special actions if energy rises.
 SCF Done:  E(RHF) =  -149.940317135     A.U. after   11 cycles
            NFock= 11  Conv=0.47D-08     -V/T= 2.0057
 Calling FoFJK, ICntrl=      2127 FMM=F ISym2X=0 I1Cent= 0 IOpClX= 0 NMat=1 NMatS=1 NMatT=0.
 ***** Axes restored to original set *****
 -------------------------------------------------------------------
 Center     Atomic                   Forces (Hartrees/Bohr)
 Number     Number              X              Y              Z
 -------------------------------------------------------------------
      1        8           0.006869414    0.006451902    0.001137766
      2        1          -0.006579095   -0.000736032    0.000026443
      3        1          -0.002587023   -0.004671711   -0.000976003
      4        8           0.009308963   -0.007915280   -0.002272736
      5        1          -0.003637034    0.005251122   -0.001461515
      6        1          -0.003375225    0.001619999    0.003546045
 -------------------------------------------------------------------
 Cartesian Forces:  Max     0.009308963 RMS     0.004639268

 GradGradGradGradGradGradGradGradGradGradGradGradGradGradGradGradGradGrad
 Berny optimization.
 Using GEDIIS/GDIIS optimizer.
 FormGI is forming the generalized inverse of G from B-inverse, IUseBI=4.
 Internal  Forces:  Max     0.007068951 RMS     0.003558673
 Search for a local minimum.
 Step number   4 out of a maximum of   25
 All quantities printed in internal units (Hartrees-Bohrs-Radians)
 Mixed Optimization -- RFO/linear search
 Update second derivatives using D2CorX and points    3    4
 DE= -2.00D-03 DEPred=-1.59D-03 R= 1.26D+00
 TightC=F SS=  1.41D+00  RLast= 4.49D-01 DXNew= 1.3931D+00 1.3472D+00
 Trust test= 1.26D+00 RLast= 4.49D-01 DXMaxT set to 1.35D+00
 The second derivative matrix:
                          R1        R2        R3        R4        R5
           R1           0.61877
           R2           0.06078   0.61677
           R3           0.00457   0.00458   0.07694
           R4           0.01077   0.00765  -0.00640   0.02229
           R5           0.03763   0.03828   0.00120   0.00496   0.57943
           R6           0.04923   0.04695   0.00280   0.00892   0.03030
           A1          -0.01286   0.00352   0.00374  -0.01198  -0.00443
           A2          -0.05880  -0.05575  -0.01544  -0.04138  -0.04871
           A3           0.00190  -0.00317  -0.00155  -0.00342  -0.00301
           A4          -0.00074   0.00005   0.00033   0.00219   0.00073
           A5          -0.02037  -0.01358   0.00078  -0.00421  -0.00798
           D1          -0.01669  -0.01400  -0.00057  -0.00186  -0.01088
           D2           0.01650   0.01402   0.00106   0.00331   0.01118
           D3          -0.01889  -0.01374  -0.00043  -0.00213  -0.01118
           D4          -0.00217  -0.00322  -0.00097  -0.00303  -0.00318
                          R6        A1        A2        A3        A4
           R6           0.59359
           A1          -0.01364   0.23876
           A2          -0.05144   0.03719   0.22265
           A3           0.00022  -0.01243  -0.00563   0.16317
           A4           0.00005  -0.00029  -0.00063  -0.00064   0.16014
           A5          -0.01558   0.02652   0.03375  -0.00640   0.00090
           D1          -0.01370   0.01232   0.00946  -0.00080  -0.00067
           D2           0.01371  -0.01240  -0.00725   0.00093   0.00060
           D3          -0.01526   0.02021   0.00999  -0.00208  -0.00051
           D4          -0.00248  -0.00012  -0.00182   0.00054  -0.00029
                          A5        D1        D2        D3        D4
           A5           0.17249
           D1           0.00945   0.01792
           D2          -0.00947  -0.00245   0.01803
           D3           0.01376   0.00285  -0.00293   0.00601
           D4           0.00012   0.00041  -0.00030   0.00020   0.01571
 ITU=  1  1  1  0
 Use linear search instead of GDIIS.
     Eigenvalues ---    0.01037   0.01330   0.01591   0.04436   0.08366
     Eigenvalues ---    0.09053   0.17121   0.25721   0.53156   0.55554
     Eigenvalues ---    0.55834   0.76004
 RFO step:  Lambda=-6.72676826D-04 EMin= 1.03725315D-02
 Quartic linear search produced a step of  0.33694.
 Iteration  1 RMS(Cart)=  0.06771049 RMS(Int)=  0.00640905
 Iteration  2 RMS(Cart)=  0.00348797 RMS(Int)=  0.00307558
 Iteration  3 RMS(Cart)=  0.00001981 RMS(Int)=  0.00307550
 Iteration  4 RMS(Cart)=  0.00000007 RMS(Int)=  0.00307550
 Variable       Old X    -DE/DX   Delta X   Delta X   Delta X     New X
                                 (Linear)    (Quad)   (Total)
    R1        1.87903  -0.00443  -0.00089  -0.00324  -0.00412   1.87491
    R2        1.87483  -0.00399   0.00031  -0.00347  -0.00316   1.87167
    R3        3.30341   0.00080   0.02109   0.01922   0.04235   3.34576
    R4        4.25330   0.00111   0.14330   0.05993   0.20047   4.45377
    R5        1.87651  -0.00707   0.00279  -0.01084  -0.00512   1.87139
    R6        1.87447  -0.00478   0.00072  -0.00563  -0.00491   1.86957
    A1        1.72007   0.00689  -0.00862   0.03878   0.03016   1.75024
    A2        2.87038   0.00389   0.03264   0.02774   0.06130   2.93168
    A3        2.82557  -0.00015   0.00185  -0.00479   0.00406   2.82963
    A4        1.93929  -0.00103  -0.00030  -0.00008  -0.00622   1.93307
    A5        1.74554   0.00357  -0.00310   0.00820   0.00339   1.74893
    D1        0.09496  -0.00050  -0.01083  -0.01720  -0.02799   0.06697
    D2        1.77328   0.00017  -0.01018  -0.01317  -0.02338   1.74990
    D3       -2.07382  -0.00042  -0.00726  -0.02092  -0.02960  -2.10342
    D4        2.02340   0.00167   0.02192   0.01581   0.04343   2.06682
         Item               Value     Threshold  Converged?
 Maximum Force            0.007069     0.000450     NO 
 RMS     Force            0.003559     0.000300     NO 
 Maximum Displacement     0.140090     0.001800     NO 
 RMS     Displacement     0.069426     0.001200     NO 
 Predicted change in Energy=-4.500348D-04
 GradGradGradGradGradGradGradGradGradGradGradGradGradGradGradGradGradGrad

                          Input orientation:                          
 ---------------------------------------------------------------------
 Center     Atomic      Atomic             Coordinates (Angstroms)
 Number     Number       Type             X           Y           Z
 ---------------------------------------------------------------------
      1          8           0       -2.355473    0.454288   -0.151379
      2          1           0       -1.370888    0.562205   -0.093709
      3          1           0       -2.649313    1.354004    0.140430
      4          8           0        0.302276    1.089893    0.144474
      5          1           0        0.855710    0.460686    0.672200
      6          1           0        0.797406    1.082950   -0.712017
 ---------------------------------------------------------------------
                    Distance matrix (angstroms):
                    1          2          3          4          5
     1  O    0.000000
     2  H    0.992158   0.000000
     3  H    0.990446   1.521886   0.000000
     4  O    2.748663   1.770498   2.963385   0.000000
     5  H    3.315119   2.356833   3.655952   0.990295   0.000000
     6  H    3.263461   2.314083   3.560900   0.989332   1.518772
                    6
     6  H    0.000000
 Stoichiometry    H4O2
 Framework group  C1[X(H4O2)]
 Deg. of freedom    12
 Full point group                 C1      NOp   1
 Largest Abelian subgroup         C1      NOp   1
 Largest concise Abelian subgroup C1      NOp   1
                         Standard orientation:                         
 ---------------------------------------------------------------------
 Center     Atomic      Atomic             Coordinates (Angstroms)
 Number     Number       Type             X           Y           Z
 ---------------------------------------------------------------------
      1          8           0       -1.458396    0.095861    0.061911
      2          1           0       -0.467643    0.137824    0.093936
      3          1           0       -1.583220   -0.728013   -0.473473
      4          8           0        1.281165   -0.083867   -0.070949
      5          1           0        1.768305    0.728195   -0.360665
      6          1           0        1.700402   -0.233953    0.812506
 ---------------------------------------------------------------------
 Rotational constants (GHZ):    203.1417930      7.1942688      7.1708965
 Standard basis: STO-3G (5D, 7F)
 There are    14 symmetry adapted cartesian basis functions of A   symmetry.
 There are    14 symmetry adapted basis functions of A   symmetry.
    14 basis functions,    42 primitive gaussians,    14 cartesian basis functions
    10 alpha electrons       10 beta electrons
       nuclear repulsion energy        37.2530608839 Hartrees.
 NAtoms=    6 NActive=    6 NUniq=    6 SFac= 1.00D+00 NAtFMM=   60 NAOKFM=F Big=F
 Integral buffers will be    131072 words long.
 Raffenetti 1 integral format.
 Two-electron integral symmetry is turned on.
 One-electron integrals computed using PRISM.
 NBasis=    14 RedAO= T EigKep=  3.54D-01  NBF=    14
 NBsUse=    14 1.00D-06 EigRej= -1.00D+00 NBFU=    14
 Initial guess from the checkpoint file:  "water_dimer.chk"
 B after Tr=     0.000000    0.000000    0.000000
         Rot=    0.999996    0.000667    0.000358    0.002815 Ang=   0.33 deg.
 ExpMin= 1.69D-01 ExpMax= 1.31D+02 ExpMxC= 1.31D+02 IAcc=1 IRadAn=         1 AccDes= 0.00D+00
 Harris functional with IExCor=  205 and IRadAn=       1 diagonalized for initial guess.
 HarFok:  IExCor=  205 AccDes= 0.00D+00 IRadAn=         1 IDoV= 1 UseB2=F ITyADJ=14
 ICtDFT=  3500011 ScaDFX=  1.000000  1.000000  1.000000  1.000000
 FoFCou: FMM=F IPFlag=           0 FMFlag=      100000 FMFlg1=           0
         NFxFlg=           0 DoJE=T BraDBF=F KetDBF=T FulRan=T
         wScrn=  0.000000 ICntrl=     500 IOpCl=  0 I1Cent=   200000004 NGrid=           0
         NMat0=    1 NMatS0=      1 NMatT0=    0 NMatD0=    1 NMtDS0=    0 NMtDT0=    0
 Petite list used in FoFCou.
 Keep R1 ints in memory in canonical form, NReq=831248.
 Requested convergence on RMS density matrix=1.00D-08 within 128 cycles.
 Requested convergence on MAX density matrix=1.00D-06.
 Requested convergence on             energy=1.00D-06.
 No special actions if energy rises.
 SCF Done:  E(RHF) =  -149.940839298     A.U. after   11 cycles
            NFock= 11  Conv=0.46D-08     -V/T= 2.0057
 Calling FoFJK, ICntrl=      2127 FMM=F ISym2X=0 I1Cent= 0 IOpClX= 0 NMat=1 NMatS=1 NMatT=0.
 ***** Axes restored to original set *****
 -------------------------------------------------------------------
 Center     Atomic                   Forces (Hartrees/Bohr)
 Number     Number              X              Y              Z
 -------------------------------------------------------------------
      1        8           0.002380950    0.001009717   -0.000096168
      2        1          -0.004182833    0.002183517    0.001482878
      3        1           0.001481340   -0.002567949   -0.000675999
      4        8           0.005333666   -0.004114878   -0.001564249
      5        1          -0.003185024    0.002255103   -0.000369874
      6        1          -0.001828098    0.001234490    0.001223412
 -------------------------------------------------------------------
 Cartesian Forces:  Max     0.005333666 RMS     0.002471646

 GradGradGradGradGradGradGradGradGradGradGradGradGradGradGradGradGradGrad
 Berny optimization.
 Using GEDIIS/GDIIS optimizer.
 FormGI is forming the generalized inverse of G from B-inverse, IUseBI=4.
 Internal  Forces:  Max     0.003618435 RMS     0.001881039
 Search for a local minimum.
 Step number   5 out of a maximum of   25
 All quantities printed in internal units (Hartrees-Bohrs-Radians)
 Mixed Optimization -- RFO/linear search
 Update second derivatives using D2CorX and points    4    5
 DE= -5.22D-04 DEPred=-4.50D-04 R= 1.16D+00
 TightC=F SS=  1.41D+00  RLast= 2.26D-01 DXNew= 2.2658D+00 6.7673D-01
 Trust test= 1.16D+00 RLast= 2.26D-01 DXMaxT set to 1.35D+00
 The second derivative matrix:
                          R1        R2        R3        R4        R5
           R1           0.59911
           R2           0.04320   0.60115
           R3           0.00927   0.00876   0.07582
           R4           0.01389   0.00989  -0.00706   0.02464
           R5           0.01683   0.02081   0.00599   0.00245   0.56931
           R6           0.02984   0.03035   0.00731   0.00819   0.01757
           A1           0.01049   0.02174  -0.00142  -0.00216  -0.00738
           A2          -0.03051  -0.03068  -0.02216  -0.04469  -0.02121
           A3          -0.00178  -0.00660  -0.00065  -0.00213  -0.00835
           A4          -0.00315  -0.00202   0.00089   0.00213  -0.00092
           A5          -0.00973  -0.00417  -0.00174  -0.00534   0.00213
           D1          -0.01522  -0.01266  -0.00093  -0.00220  -0.00910
           D2           0.01348   0.01130   0.00179   0.00385   0.00785
           D3          -0.01460  -0.00982  -0.00146  -0.00325  -0.00575
           D4          -0.00272  -0.00384  -0.00082  -0.00228  -0.00512
                          R6        A1        A2        A3        A4
           R6           0.57957
           A1          -0.00872   0.27536
           A2          -0.02513   0.00924   0.18246
           A3          -0.00435  -0.00470  -0.00005   0.16265
           A4          -0.00174   0.00047   0.00266  -0.00120   0.15991
           A5          -0.00584   0.01656   0.01868  -0.00427   0.00212
           D1          -0.01211   0.01007   0.00730  -0.00056  -0.00047
           D2           0.01064  -0.00851  -0.00288   0.00038   0.00022
           D3          -0.01044   0.01303   0.00364  -0.00139   0.00008
           D4          -0.00391   0.00370  -0.00076   0.00060  -0.00046
                          A5        D1        D2        D3        D4
           A5           0.16684
           D1           0.00863   0.01782
           D2          -0.00782  -0.00223   0.01757
           D3           0.01136   0.00255  -0.00228   0.00515
           D4           0.00054   0.00043  -0.00036   0.00022   0.01585
 ITU=  1  1  1  1  0
 Use linear search instead of GDIIS.
     Eigenvalues ---    0.00895   0.01086   0.01601   0.03834   0.08280
     Eigenvalues ---    0.09249   0.17216   0.27763   0.52785   0.55744
     Eigenvalues ---    0.56032   0.68105
 RFO step:  Lambda=-1.75000396D-04 EMin= 8.95194747D-03
 Quartic linear search produced a step of  0.22023.
 Iteration  1 RMS(Cart)=  0.02569314 RMS(Int)=  0.00121463
 Iteration  2 RMS(Cart)=  0.00056519 RMS(Int)=  0.00064123
 Iteration  3 RMS(Cart)=  0.00000081 RMS(Int)=  0.00064123
 Variable       Old X    -DE/DX   Delta X   Delta X   Delta X     New X
                                 (Linear)    (Quad)   (Total)
    R1        1.87491  -0.00362  -0.00091  -0.00503  -0.00593   1.86897
    R2        1.87167  -0.00297  -0.00070  -0.00346  -0.00416   1.86751
    R3        3.34576   0.00056   0.00933   0.01328   0.02306   3.36882
    R4        4.45377  -0.00051   0.04415   0.01258   0.05616   4.50992
    R5        1.87139  -0.00315  -0.00113  -0.00381  -0.00436   1.86703
    R6        1.86957  -0.00198  -0.00108  -0.00186  -0.00294   1.86663
    A1        1.75024  -0.00118   0.00664  -0.01112  -0.00448   1.74576
    A2        2.93168   0.00210   0.01350   0.01814   0.03150   2.96318
    A3        2.82963  -0.00037   0.00089  -0.00533  -0.00311   2.82652
    A4        1.93307  -0.00070  -0.00137   0.00140  -0.00125   1.93182
    A5        1.74893   0.00283   0.00075   0.01685   0.01720   1.76613
    D1        0.06697  -0.00051  -0.00616  -0.02397  -0.03024   0.03673
    D2        1.74990   0.00026  -0.00515   0.00033  -0.00472   1.74518
    D3       -2.10342  -0.00036  -0.00652  -0.00262  -0.00949  -2.11291
    D4        2.06682   0.00134   0.00956   0.01301   0.02382   2.09065
         Item               Value     Threshold  Converged?
 Maximum Force            0.003618     0.000450     NO 
 RMS     Force            0.001881     0.000300     NO 
 Maximum Displacement     0.040145     0.001800     NO 
 RMS     Displacement     0.025631     0.001200     NO 
 Predicted change in Energy=-1.053765D-04
 GradGradGradGradGradGradGradGradGradGradGradGradGradGradGradGradGradGrad

                          Input orientation:                          
 ---------------------------------------------------------------------
 Center     Atomic      Atomic             Coordinates (Angstroms)
 Number     Number       Type             X           Y           Z
 ---------------------------------------------------------------------
      1          8           0       -2.360719    0.460137   -0.169276
      2          1           0       -1.381241    0.579529   -0.102009
      3          1           0       -2.664445    1.340394    0.161674
      4          8           0        0.312674    1.079887    0.139482
      5          1           0        0.868620    0.473885    0.687028
      6          1           0        0.804829    1.070194   -0.716900
 ---------------------------------------------------------------------
                    Distance matrix (angstroms):
                    1          2          3          4          5
     1  O    0.000000
     2  H    0.989018   0.000000
     3  H    0.988246   1.514944   0.000000
     4  O    2.761603   1.782701   2.988577   0.000000
     5  H    3.340970   2.386549   3.675511   0.987989   0.000000
     6  H    3.269979   2.323305   3.588978   0.987776   1.526652
                    6
     6  H    0.000000
 Stoichiometry    H4O2
 Framework group  C1[X(H4O2)]
 Deg. of freedom    12
 Full point group                 C1      NOp   1
 Largest Abelian subgroup         C1      NOp   1
 Largest concise Abelian subgroup C1      NOp   1
                         Standard orientation:                         
 ---------------------------------------------------------------------
 Center     Atomic      Atomic             Coordinates (Angstroms)
 Number     Number       Type             X           Y           Z
 ---------------------------------------------------------------------
      1          8           0       -1.464559    0.090687    0.070548
      2          1           0       -0.476138    0.116418    0.093304
      3          1           0       -1.602725   -0.674719   -0.539118
      4          8           0        1.288193   -0.077917   -0.072203
      5          1           0        1.788424    0.729414   -0.344431
      6          1           0        1.701368   -0.273276    0.803481
 ---------------------------------------------------------------------
 Rotational constants (GHZ):    205.2738396      7.1171508      7.1047374
 Standard basis: STO-3G (5D, 7F)
 There are    14 symmetry adapted cartesian basis functions of A   symmetry.
 There are    14 symmetry adapted basis functions of A   symmetry.
    14 basis functions,    42 primitive gaussians,    14 cartesian basis functions
    10 alpha electrons       10 beta electrons
       nuclear repulsion energy        37.1883979348 Hartrees.
 NAtoms=    6 NActive=    6 NUniq=    6 SFac= 1.00D+00 NAtFMM=   60 NAOKFM=F Big=F
 Integral buffers will be    131072 words long.
 Raffenetti 1 integral format.
 Two-electron integral symmetry is turned on.
 One-electron integrals computed using PRISM.
 NBasis=    14 RedAO= T EigKep=  3.53D-01  NBF=    14
 NBsUse=    14 1.00D-06 EigRej= -1.00D+00 NBFU=    14
 Initial guess from the checkpoint file:  "water_dimer.chk"
 B after Tr=     0.000000    0.000000    0.000000
         Rot=    0.999587   -0.028727    0.000112    0.000443 Ang=  -3.29 deg.
 ExpMin= 1.69D-01 ExpMax= 1.31D+02 ExpMxC= 1.31D+02 IAcc=1 IRadAn=         1 AccDes= 0.00D+00
 Harris functional with IExCor=  205 and IRadAn=       1 diagonalized for initial guess.
 HarFok:  IExCor=  205 AccDes= 0.00D+00 IRadAn=         1 IDoV= 1 UseB2=F ITyADJ=14
 ICtDFT=  3500011 ScaDFX=  1.000000  1.000000  1.000000  1.000000
 FoFCou: FMM=F IPFlag=           0 FMFlag=      100000 FMFlg1=           0
         NFxFlg=           0 DoJE=T BraDBF=F KetDBF=T FulRan=T
         wScrn=  0.000000 ICntrl=     500 IOpCl=  0 I1Cent=   200000004 NGrid=           0
         NMat0=    1 NMatS0=      1 NMatT0=    0 NMatD0=    1 NMtDS0=    0 NMtDT0=    0
 Petite list used in FoFCou.
 Keep R1 ints in memory in canonical form, NReq=831248.
 Requested convergence on RMS density matrix=1.00D-08 within 128 cycles.
 Requested convergence on MAX density matrix=1.00D-06.
 Requested convergence on             energy=1.00D-06.
 No special actions if energy rises.
 SCF Done:  E(RHF) =  -149.940950797     A.U. after    9 cycles
            NFock=  9  Conv=0.71D-08     -V/T= 2.0057
 Calling FoFJK, ICntrl=      2127 FMM=F ISym2X=0 I1Cent= 0 IOpClX= 0 NMat=1 NMatS=1 NMatT=0.
 ***** Axes restored to original set *****
 -------------------------------------------------------------------
 Center     Atomic                   Forces (Hartrees/Bohr)
 Number     Number              X              Y              Z
 -------------------------------------------------------------------
      1        8           0.000434480   -0.000429287   -0.000531143
      2        1           0.000271571    0.001231537    0.001321397
      3        1          -0.000243934   -0.000272057   -0.000006176
      4        8          -0.000224225   -0.000554268   -0.000764554
      5        1          -0.000632015    0.000425749   -0.001240324
      6        1           0.000394123   -0.000401674    0.001220800
 -------------------------------------------------------------------
 Cartesian Forces:  Max     0.001321397 RMS     0.000706848

 GradGradGradGradGradGradGradGradGradGradGradGradGradGradGradGradGradGrad
 Berny optimization.
 Using GEDIIS/GDIIS optimizer.
 FormGI is forming the generalized inverse of G from B-inverse, IUseBI=4.
 Internal  Forces:  Max     0.001117293 RMS     0.000612018
 Search for a local minimum.
 Step number   6 out of a maximum of   25
 All quantities printed in internal units (Hartrees-Bohrs-Radians)
 Mixed Optimization -- En-DIIS/RFO-DIIS
 Update second derivatives using D2CorX and points    4    5    6
 DE= -1.11D-04 DEPred=-1.05D-04 R= 1.06D+00
 TightC=F SS=  1.41D+00  RLast= 8.17D-02 DXNew= 2.2658D+00 2.4518D-01
 Trust test= 1.06D+00 RLast= 8.17D-02 DXMaxT set to 1.35D+00
 The second derivative matrix:
                          R1        R2        R3        R4        R5
           R1           0.60151
           R2           0.04320   0.59955
           R3           0.00319   0.00418   0.07820
           R4           0.00955   0.00634  -0.00608   0.02486
           R5           0.00613   0.01048   0.00360  -0.00105   0.55051
           R6           0.01764   0.01935   0.00687   0.00602   0.00119
           A1           0.02022   0.02958  -0.00355  -0.00206  -0.00056
           A2          -0.00373  -0.00746  -0.02397  -0.04224   0.00887
           A3          -0.00230  -0.00729  -0.00127  -0.00268  -0.01047
           A4           0.02028   0.01674  -0.00515   0.00077   0.01543
           A5          -0.02785  -0.01715   0.00727  -0.00095  -0.00064
           D1          -0.02048  -0.01694   0.00025  -0.00204  -0.01318
           D2           0.01583   0.01311   0.00097   0.00355   0.00901
           D3          -0.01816  -0.01261  -0.00039  -0.00293  -0.00786
           D4          -0.01446  -0.01307   0.00268  -0.00122  -0.01223
                          R6        A1        A2        A3        A4
           R6           0.56631
           A1          -0.00458   0.27786
           A2          -0.00240   0.00397   0.14643
           A3          -0.00641  -0.00337   0.00402   0.16248
           A4           0.00750   0.00327  -0.00631   0.00168   0.17034
           A5          -0.00251   0.00685   0.00356  -0.00585  -0.02374
           D1          -0.01462   0.00974   0.01023  -0.00123  -0.00208
           D2           0.01106  -0.00787  -0.00270   0.00064   0.00214
           D3          -0.01145   0.01230   0.00419  -0.00180  -0.00215
           D4          -0.00739   0.00149   0.00129  -0.00077  -0.00766
                          A5        D1        D2        D3        D4
           A5           0.19915
           D1           0.01393   0.01801
           D2          -0.01102  -0.00259   0.01784
           D3           0.01573   0.00294  -0.00263   0.00559
           D4           0.01486   0.00168  -0.00152   0.00163   0.02042
 ITU=  1  1  1  1  1  0
 Use linear search instead of GDIIS.
     Eigenvalues ---    0.00824   0.01028   0.01631   0.03265   0.07626
     Eigenvalues ---    0.09596   0.21018   0.27756   0.51500   0.55742
     Eigenvalues ---    0.56003   0.66438
 RFO step:  Lambda=-6.03510177D-05 EMin= 8.23786440D-03
 Quartic linear search produced a step of  0.08671.
 Iteration  1 RMS(Cart)=  0.01978858 RMS(Int)=  0.00055820
 Iteration  2 RMS(Cart)=  0.00034747 RMS(Int)=  0.00004016
 Iteration  3 RMS(Cart)=  0.00000018 RMS(Int)=  0.00004016
 Variable       Old X    -DE/DX   Delta X   Delta X   Delta X     New X
                                 (Linear)    (Quad)   (Total)
    R1        1.86897  -0.00007  -0.00051  -0.00158  -0.00209   1.86688
    R2        1.86751  -0.00017  -0.00036  -0.00130  -0.00166   1.86585
    R3        3.36882  -0.00028   0.00200   0.00429   0.00632   3.37514
    R4        4.50992  -0.00039   0.00487   0.00376   0.00859   4.51852
    R5        1.86703  -0.00112  -0.00038  -0.00288  -0.00321   1.86381
    R6        1.86663  -0.00086  -0.00026  -0.00252  -0.00278   1.86385
    A1        1.74576   0.00058  -0.00039   0.00472   0.00434   1.75009
    A2        2.96318   0.00066   0.00273   0.01691   0.01975   2.98293
    A3        2.82652   0.00014  -0.00027  -0.00492  -0.00517   2.82135
    A4        1.93182   0.00061  -0.00011   0.00424   0.00409   1.93591
    A5        1.76613  -0.00092   0.00149  -0.00593  -0.00449   1.76164
    D1        0.03673  -0.00069  -0.00262  -0.02437  -0.02696   0.00977
    D2        1.74518   0.00052  -0.00041   0.00283   0.00238   1.74757
    D3       -2.11291  -0.00068  -0.00082  -0.02469  -0.02547  -2.13838
    D4        2.09065   0.00040   0.00207   0.00196   0.00404   2.09468
         Item               Value     Threshold  Converged?
 Maximum Force            0.001117     0.000450     NO 
 RMS     Force            0.000612     0.000300     NO 
 Maximum Displacement     0.033857     0.001800     NO 
 RMS     Displacement     0.019756     0.001200     NO 
 Predicted change in Energy=-3.050914D-05
 GradGradGradGradGradGradGradGradGradGradGradGradGradGradGradGradGradGrad

                          Input orientation:                          
 ---------------------------------------------------------------------
 Center     Atomic      Atomic             Coordinates (Angstroms)
 Number     Number       Type             X           Y           Z
 ---------------------------------------------------------------------
      1          8           0       -2.359884    0.465135   -0.180789
      2          1           0       -1.383216    0.594473   -0.107601
      3          1           0       -2.679157    1.327159    0.179590
      4          8           0        0.318111    1.081358    0.134054
      5          1           0        0.867552    0.481254    0.691505
      6          1           0        0.816311    1.054648   -0.716760
 ---------------------------------------------------------------------
                    Distance matrix (angstroms):
                    1          2          3          4          5
     1  O    0.000000
     2  H    0.987910   0.000000
     3  H    0.987367   1.516169   0.000000
     4  O    2.765956   1.786048   3.007674   0.000000
     5  H    3.343277   2.391097   3.681950   0.986288   0.000000
     6  H    3.274599   2.328251   3.618839   0.986306   1.521386
                    6
     6  H    0.000000
 Stoichiometry    H4O2
 Framework group  C1[X(H4O2)]
 Deg. of freedom    12
 Full point group                 C1      NOp   1
 Largest Abelian subgroup         C1      NOp   1
 Largest concise Abelian subgroup C1      NOp   1
                         Standard orientation:                         
 ---------------------------------------------------------------------
 Center     Atomic      Atomic             Coordinates (Angstroms)
 Number     Number       Type             X           Y           Z
 ---------------------------------------------------------------------
      1          8           0       -1.465811    0.089722   -0.073267
      2          1           0       -0.478135    0.106933   -0.086114
      3          1           0       -1.620742   -0.674534    0.532375
      4          8           0        1.291195   -0.085142    0.064032
      5          1           0        1.788454   -0.210088   -0.778514
      6          1           0        1.707351    0.741043    0.406133
 ---------------------------------------------------------------------
 Rotational constants (GHZ):    206.4532388      7.0915215      7.0787887
 Standard basis: STO-3G (5D, 7F)
 There are    14 symmetry adapted cartesian basis functions of A   symmetry.
 There are    14 symmetry adapted basis functions of A   symmetry.
    14 basis functions,    42 primitive gaussians,    14 cartesian basis functions
    10 alpha electrons       10 beta electrons
       nuclear repulsion energy        37.1738899370 Hartrees.
 NAtoms=    6 NActive=    6 NUniq=    6 SFac= 1.00D+00 NAtFMM=   60 NAOKFM=F Big=F
 Integral buffers will be    131072 words long.
 Raffenetti 1 integral format.
 Two-electron integral symmetry is turned on.
 One-electron integrals computed using PRISM.
 NBasis=    14 RedAO= T EigKep=  3.52D-01  NBF=    14
 NBsUse=    14 1.00D-06 EigRej= -1.00D+00 NBFU=    14
 Initial guess from the checkpoint file:  "water_dimer.chk"
 B after Tr=     0.000000    0.000000    0.000000
         Rot=    0.772619    0.634870   -0.000114    0.000330 Ang=  78.82 deg.
 ExpMin= 1.69D-01 ExpMax= 1.31D+02 ExpMxC= 1.31D+02 IAcc=1 IRadAn=         1 AccDes= 0.00D+00
 Harris functional with IExCor=  205 and IRadAn=       1 diagonalized for initial guess.
 HarFok:  IExCor=  205 AccDes= 0.00D+00 IRadAn=         1 IDoV= 1 UseB2=F ITyADJ=14
 ICtDFT=  3500011 ScaDFX=  1.000000  1.000000  1.000000  1.000000
 FoFCou: FMM=F IPFlag=           0 FMFlag=      100000 FMFlg1=           0
         NFxFlg=           0 DoJE=T BraDBF=F KetDBF=T FulRan=T
         wScrn=  0.000000 ICntrl=     500 IOpCl=  0 I1Cent=   200000004 NGrid=           0
         NMat0=    1 NMatS0=      1 NMatT0=    0 NMatD0=    1 NMtDS0=    0 NMtDT0=    0
 Petite list used in FoFCou.
 Keep R1 ints in memory in canonical form, NReq=831248.
 Requested convergence on RMS density matrix=1.00D-08 within 128 cycles.
 Requested convergence on MAX density matrix=1.00D-06.
 Requested convergence on             energy=1.00D-06.
 No special actions if energy rises.
 SCF Done:  E(RHF) =  -149.940993307     A.U. after    9 cycles
            NFock=  9  Conv=0.43D-08     -V/T= 2.0056
 Calling FoFJK, ICntrl=      2127 FMM=F ISym2X=0 I1Cent= 0 IOpClX= 0 NMat=1 NMatS=1 NMatT=0.
 ***** Axes restored to original set *****
 -------------------------------------------------------------------
 Center     Atomic                   Forces (Hartrees/Bohr)
 Number     Number              X              Y              Z
 -------------------------------------------------------------------
      1        8          -0.000805307   -0.001889384   -0.001063885
      2        1           0.001528045    0.001707953    0.001442714
      3        1          -0.000016528    0.000680683    0.000347228
      4        8          -0.001545858    0.000309458   -0.000582838
      5        1           0.000102324   -0.000854448    0.000600705
      6        1           0.000737325    0.000045739   -0.000743924
 -------------------------------------------------------------------
 Cartesian Forces:  Max     0.001889384 RMS     0.001008119

 GradGradGradGradGradGradGradGradGradGradGradGradGradGradGradGradGradGrad
 Berny optimization.
 Using GEDIIS/GDIIS optimizer.
 FormGI is forming the generalized inverse of G from B-inverse, IUseBI=4.
 Internal  Forces:  Max     0.001054631 RMS     0.000625727
 Search for a local minimum.
 Step number   7 out of a maximum of   25
 All quantities printed in internal units (Hartrees-Bohrs-Radians)
 Mixed Optimization -- En-DIIS/RFO-DIIS
 Swapping is turned off.
 Update second derivatives using D2CorX and points    4    5    6    7
 DE= -4.25D-05 DEPred=-3.05D-05 R= 1.39D+00
 TightC=F SS=  1.41D+00  RLast= 4.48D-02 DXNew= 2.2658D+00 1.3447D-01
 Trust test= 1.39D+00 RLast= 4.48D-02 DXMaxT set to 1.35D+00
 The second derivative matrix:
                          R1        R2        R3        R4        R5
           R1           0.66828
           R2           0.09602   0.64115
           R3          -0.01024  -0.00657   0.08057
           R4           0.00165  -0.00087  -0.00586   0.02179
           R5           0.10326   0.08668  -0.01573  -0.01717   0.69122
           R6           0.09735   0.08197  -0.00909  -0.00749   0.11761
           A1          -0.01158   0.00467   0.00089   0.00456  -0.04828
           A2           0.00430   0.00231  -0.02206  -0.02672   0.03451
           A3          -0.03774  -0.03701   0.00428  -0.00425  -0.07118
           A4           0.02611   0.02182  -0.00507   0.00564   0.02282
           A5          -0.00972  -0.00385   0.00271  -0.00979   0.02349
           D1          -0.01887  -0.01594  -0.00046  -0.00406  -0.01141
           D2           0.01578   0.01308   0.00106   0.00399   0.00862
           D3          -0.01105  -0.00687  -0.00178  -0.00400   0.00372
           D4          -0.02173  -0.01846   0.00393  -0.00106  -0.01919
                          R6        A1        A2        A3        A4
           R6           0.66253
           A1          -0.04577   0.29347
           A2           0.01837  -0.00657   0.08557
           A3          -0.05618   0.02270   0.02627   0.17123
           A4           0.01389   0.00864  -0.01973   0.00519   0.16615
           A5           0.01772  -0.00379   0.02754  -0.02649  -0.01872
           D1          -0.01319   0.00802   0.01618  -0.00469  -0.00046
           D2           0.01077  -0.00683  -0.00353   0.00111   0.00184
           D3          -0.00195   0.00666   0.00431  -0.00564  -0.00177
           D4          -0.01341  -0.00239  -0.00192   0.00375  -0.00767
                          A5        D1        D2        D3        D4
           A5           0.19857
           D1           0.01265   0.01750
           D2          -0.01096  -0.00250   0.01783
           D3           0.01847   0.00321  -0.00267   0.00644
           D4           0.01473   0.00158  -0.00145   0.00086   0.02023
 ITU=  1  1  1  1  1  1  0
[...]
      1          8           0       -1.439856    0.113316   -0.050401
      2          1           0       -0.454148    0.033867   -0.014169
      3          1           0       -1.703139   -0.758358    0.333256
      4          8           0        1.288667   -0.106726    0.049964
      5          1           0        1.685750    0.010799   -0.846170
      6          1           0        1.681049    0.660970    0.530575
 ---------------------------------------------------------------------
 Rotational constants (GHZ):    201.7825403      7.2410796      7.2230741
 Standard basis: STO-3G (5D, 7F)
 There are    14 symmetry adapted cartesian basis functions of A   symmetry.
 There are    14 symmetry adapted basis functions of A   symmetry.
    14 basis functions,    42 primitive gaussians,    14 cartesian basis functions
    10 alpha electrons       10 beta electrons
       nuclear repulsion energy        37.3713994754 Hartrees.
 NAtoms=    6 NActive=    6 NUniq=    6 SFac= 1.00D+00 NAtFMM=   60 NAOKFM=F Big=F
 Integral buffers will be    131072 words long.
 Raffenetti 1 integral format.
 Two-electron integral symmetry is turned on.
 One-electron integrals computed using PRISM.
 NBasis=    14 RedAO= T EigKep=  3.52D-01  NBF=    14
 NBsUse=    14 1.00D-06 EigRej= -1.00D+00 NBFU=    14
 Initial guess from the checkpoint file:  "water_dimer.chk"
 B after Tr=     0.000000    0.000000    0.000000
         Rot=    0.991710   -0.128492   -0.000058   -0.000143 Ang= -14.76 deg.
 ExpMin= 1.69D-01 ExpMax= 1.31D+02 ExpMxC= 1.31D+02 IAcc=1 IRadAn=         1 AccDes= 0.00D+00
 Harris functional with IExCor=  205 and IRadAn=       1 diagonalized for initial guess.
 HarFok:  IExCor=  205 AccDes= 0.00D+00 IRadAn=         1 IDoV= 1 UseB2=F ITyADJ=14
 ICtDFT=  3500011 ScaDFX=  1.000000  1.000000  1.000000  1.000000
 FoFCou: FMM=F IPFlag=           0 FMFlag=      100000 FMFlg1=           0
         NFxFlg=           0 DoJE=T BraDBF=F KetDBF=T FulRan=T
         wScrn=  0.000000 ICntrl=     500 IOpCl=  0 I1Cent=   200000004 NGrid=           0
         NMat0=    1 NMatS0=      1 NMatT0=    0 NMatD0=    1 NMtDS0=    0 NMtDT0=    0
 Petite list used in FoFCou.
 Keep R1 ints in memory in canonical form, NReq=831278.
 Requested convergence on RMS density matrix=1.00D-08 within 128 cycles.
 Requested convergence on MAX density matrix=1.00D-06.
 Requested convergence on             energy=1.00D-06.
 No special actions if energy rises.
 SCF Done:  E(RHF) =  -149.941243498     A.U. after    9 cycles
            NFock=  9  Conv=0.29D-08     -V/T= 2.0056
 Calling FoFJK, ICntrl=      2127 FMM=F ISym2X=0 I1Cent= 0 IOpClX= 0 NMat=1 NMatS=1 NMatT=0.
 ***** Axes restored to original set *****
 -------------------------------------------------------------------
 Center     Atomic                   Forces (Hartrees/Bohr)
 Number     Number              X              Y              Z
 -------------------------------------------------------------------
      1        8           0.000003908   -0.000028949    0.000014918
      2        1          -0.000075763    0.000080884    0.000038529
      3        1           0.000026592   -0.000025241   -0.000025574
      4        8           0.000074026   -0.000146648    0.000035529
      5        1          -0.000066800    0.000096535   -0.000088356
      6        1           0.000038036    0.000023419    0.000024953
 -------------------------------------------------------------------
 Cartesian Forces:  Max     0.000146648 RMS     0.000062046

 GradGradGradGradGradGradGradGradGradGradGradGradGradGradGradGradGradGrad
 Berny optimization.
 Using GEDIIS/GDIIS optimizer.
 FormGI is forming the generalized inverse of G from B-inverse, IUseBI=4.
 Internal  Forces:  Max     0.000139365 RMS     0.000045963
 Search for a local minimum.
 Step number  15 out of a maximum of   25
 All quantities printed in internal units (Hartrees-Bohrs-Radians)
 Mixed Optimization -- En-DIIS/RFO-DIIS
 Swapping is turned off.
 Update second derivatives using D2CorX and points    4    5    6    7    8
                                                      9   10   11   12   13
                                                     14   15
 DE= -9.24D-06 DEPred=-3.53D-06 R= 2.62D+00
 TightC=F SS=  1.41D+00  RLast= 8.15D-02 DXNew= 2.2658D+00 2.4447D-01
 Trust test= 2.62D+00 RLast= 8.15D-02 DXMaxT set to 1.35D+00
 The second derivative matrix:
                          R1        R2        R3        R4        R5
           R1           0.63483
           R2           0.06381   0.61110
           R3           0.00254  -0.00571   0.04010
           R4           0.01970   0.01419  -0.01544   0.01871
           R5           0.04935   0.03723   0.00289   0.00717   0.61208
           R6           0.05546   0.04254  -0.00207   0.01093   0.05458
           A1           0.02037   0.03104   0.00003   0.00144  -0.00485
           A2          -0.02790  -0.02163   0.00697  -0.01289  -0.00832
           A3          -0.01167  -0.01035  -0.00082  -0.01433  -0.03849
           A4           0.01730   0.01567  -0.00335   0.01022   0.00916
           A5          -0.00040   0.00329   0.01709  -0.00802   0.03637
           D1          -0.01886  -0.01512   0.00114  -0.00355  -0.00806
           D2           0.01011   0.00618  -0.00382   0.00449  -0.00581
           D3          -0.01185  -0.00648   0.00139  -0.00184   0.00523
           D4          -0.01213  -0.01085   0.00492  -0.00591  -0.00374
                          R6        A1        A2        A3        A4
           R6           0.61309
           A1          -0.01005   0.28562
           A2          -0.01015   0.00955   0.05577
           A3          -0.02676  -0.00162   0.03694   0.15637
           A4           0.00491   0.02144  -0.02379   0.00769   0.13423
           A5           0.02940   0.00117   0.03035  -0.04494  -0.01543
           D1          -0.01124   0.00654   0.01738  -0.00587   0.00295
           D2          -0.00095  -0.00624  -0.01112   0.01161   0.01850
           D3          -0.00073   0.01035   0.00455  -0.00722  -0.00133
           D4           0.00015  -0.01150   0.00410  -0.00608  -0.00674
                          A5        D1        D2        D3        D4
           A5           0.20269
           D1           0.01489   0.01862
           D2          -0.01989  -0.00585   0.00878
           D3           0.02348   0.00464  -0.00528   0.00769
           D4           0.01777   0.00027  -0.00022   0.00057   0.02349
 ITU=  1  1  1  1  1  1  1  1  1  1  1  1  1  1  0
     Eigenvalues ---    0.00083   0.00757   0.00770   0.01421   0.03524
     Eigenvalues ---    0.07194   0.22936   0.28184   0.54465   0.55818
     Eigenvalues ---    0.58794   0.77953
 En-DIIS/RFO-DIIS IScMMF=        0 using points:    15   14   13   12   11
 RFO step:  Lambda=-8.66461807D-08.
 DidBck=F Rises=F RFO-DIIS coefs:    1.06371   -0.05029    0.32671   -0.57945    0.23933
 New curvilinear step failed, DQL= 4.44D+00 SP=-2.69D-01.
 ITry= 1 IFail=1 DXMaxC= 0.00D+00 DCOld= 1.00D+10 DXMaxT= 1.35D+00 DXLimC= 3.00D+00 Rises=F
 New curvilinear step failed, DQL= 4.44D+00 SP=-2.71D-01.
 ITry= 2 IFail=1 DXMaxC= 0.00D+00 DCOld= 1.00D+10 DXMaxT= 1.35D+00 DXLimC= 3.00D+00 Rises=F
 New curvilinear step failed, DQL= 4.44D+00 SP=-2.72D-01.
 ITry= 3 IFail=1 DXMaxC= 0.00D+00 DCOld= 1.00D+10 DXMaxT= 1.35D+00 DXLimC= 3.00D+00 Rises=F
 New curvilinear step failed, DQL= 4.44D+00 SP=-2.75D-01.
 ITry= 4 IFail=1 DXMaxC= 0.00D+00 DCOld= 1.00D+10 DXMaxT= 1.35D+00 DXLimC= 3.00D+00 Rises=F
 New curvilinear step failed, DQL= 4.44D+00 SP=-2.73D-01.
 ITry= 5 IFail=1 DXMaxC= 0.00D+00 DCOld= 1.00D+10 DXMaxT= 1.35D+00 DXLimC= 3.00D+00 Rises=F
 New curvilinear step failed, DQL= 4.44D+00 SP=-2.79D-01.
 ITry= 6 IFail=1 DXMaxC= 0.00D+00 DCOld= 1.00D+10 DXMaxT= 1.35D+00 DXLimC= 3.00D+00 Rises=F
 New curvilinear step failed, DQL= 4.44D+00 SP=-2.78D-01.
 ITry= 7 IFail=1 DXMaxC= 0.00D+00 DCOld= 1.00D+10 DXMaxT= 1.35D+00 DXLimC= 3.00D+00 Rises=F
 New curvilinear step failed, DQL= 4.44D+00 SP=-2.83D-01.
 ITry= 8 IFail=1 DXMaxC= 0.00D+00 DCOld= 1.00D+10 DXMaxT= 1.35D+00 DXLimC= 3.00D+00 Rises=F
 New curvilinear step failed, DQL= 4.44D+00 SP=-2.85D-01.
 ITry= 9 IFail=1 DXMaxC= 0.00D+00 DCOld= 1.00D+10 DXMaxT= 1.35D+00 DXLimC= 3.00D+00 Rises=F
 New curvilinear step failed, DQL= 4.44D+00 SP=-2.87D-01.
 ITry=10 IFail=1 DXMaxC= 0.00D+00 DCOld= 1.00D+10 DXMaxT= 1.35D+00 DXLimC= 3.00D+00 Rises=F
 RedQX1 iteration     1 Try  1 RMS(Cart)=  0.00092658 RMS(Int)=  1.14863951 XScale=  0.00634939
 RedQX1 iteration     2 Try  1 RMS(Cart)=  0.00018532 RMS(Int)=  1.14458610 XScale=  0.00634786
 RedQX1 iteration     3 Try  1 RMS(Cart)=  0.00003706 RMS(Int)=  0.00720802 XScale= 86.16915895
 RedQX1 iteration     3 Try  2 RMS(Cart)=  0.00003706 RMS(Int)=  1.14441063 XScale=  0.00634883
 RedQX1 iteration     4 Try  1 RMS(Cart)=  0.00003677 RMS(Int)=  1.14440529 XScale=  0.00634886
 RedQX1 iteration     5 Try  1 RMS(Cart)=  0.00000735 RMS(Int)=  0.00718094 XScale= 54.84292014
 RedQX1 iteration     5 Try  2 RMS(Cart)=  0.00000735 RMS(Int)=  0.00712847 XScale= 28.07818221
 RedQX1 iteration     5 Try  3 RMS(Cart)=  0.00000735 RMS(Int)=  0.00686664 XScale=  5.64882174
 RedQX1 iteration     5 Try  4 RMS(Cart)=  0.00000735 RMS(Int)=  1.14410180 XScale=  0.00635054
 RedQX1 iteration     6 Try  1 RMS(Cart)=  0.00000732 RMS(Int)=  1.14409799 XScale=  0.00635057
 RedQX1 iteration     7 Try  1 RMS(Cart)=  0.00000146 RMS(Int)=  0.00695051 XScale=  1.79147152
 RedQX1 iteration     7 Try  2 RMS(Cart)=  0.00000146 RMS(Int)=  1.14094111 XScale=  0.00636810
 RedQX1 iteration     8 Try  1 RMS(Cart)=  0.00000146 RMS(Int)=  1.14093879 XScale=  0.00636811
 RedQX1 iteration     9 Try  1 RMS(Cart)=  0.00000029 RMS(Int)=  0.00813020 XScale=  1.04403385
 RedQX1 iteration     9 Try  2 RMS(Cart)=  0.00000029 RMS(Int)=  0.02289182 XScale=  0.29925305
 RedQX1 iteration    10 Try  1 RMS(Cart)=  0.00000029 RMS(Int)=  0.02288811 XScale=  0.29930081
 RedQX1 iteration    11 Try  1 RMS(Cart)=  0.00000006 RMS(Int)=  0.00882535 XScale=  0.89541839
 RedQX1 iteration    12 Try  1 RMS(Cart)=  0.00000001 RMS(Int)=  0.00824532 XScale=  1.01432537
 TrRot=  0.000000  0.000000  0.000000  0.000000  0.000000  0.000000
 Variable       Old X    -DE/DX   Delta X   Delta X   Delta X     New X
                                 (Linear)    (Quad)   (Total)
    R1        1.87001  -0.00002  -0.00010   0.00010   0.00000   1.87001
    R2        1.86722  -0.00004   0.00000  -0.00007   0.00000   1.86722
    R3        3.30636   0.00004   0.00101   0.00005   0.00001   3.30638
    R4        4.33894  -0.00001  -0.00128  -0.00002  -0.00002   4.33892
    R5        1.86552  -0.00014  -0.00018  -0.00011  -0.00001   1.86551
    R6        1.86529  -0.00001   0.00000  -0.00001   0.00000   1.86529
    A1        1.75216  -0.00002   0.00010  -0.00013   0.00000   1.75216
    A2        3.14151   0.00005   0.00442   0.00155   0.00008   3.14159
    A3        2.72851   0.00001  -0.00257  -0.00097  -0.00006   2.72846
    A4        1.92978   0.00004  -0.00231   0.00074  -0.00002   1.92976
    A5        1.76146  -0.00001  -0.00059   0.00030  -0.00001   1.76145
    D1       -0.12302  -0.00001  -0.00033  -0.00128  -0.01959  -0.14260
    D2        2.14650   0.00003   0.02188   0.00242   0.00032   2.14681
    D3       -2.07388  -0.00001   0.01011   0.00176   0.01973  -2.05415
    D4        2.04556   0.00006  -0.00371   0.00101  -0.00004   2.04553
         Item               Value     Threshold  Converged?
 Maximum Force            0.000139     0.000450     YES
 RMS     Force            0.000046     0.000300     YES
 Maximum Displacement     0.000132     0.001800     YES
 RMS     Displacement     0.000061     0.001200     YES
 Predicted change in Energy=-3.244880D-06
 Optimization completed.
    -- Stationary point found.
                           ----------------------------
                           !   Optimized Parameters   !
                           ! (Angstroms and Degrees)  !
 --------------------------                            --------------------------
 ! Name  Definition              Value          Derivative Info.                !
 --------------------------------------------------------------------------------
 ! R1    R(1,2)                  0.9896         -DE/DX =    0.0                 !
 ! R2    R(1,3)                  0.9881         -DE/DX =    0.0                 !
 ! R3    R(2,4)                  1.7497         -DE/DX =    0.0                 !
 ! R4    R(2,5)                  2.2961         -DE/DX =    0.0                 !
 ! R5    R(4,5)                  0.9872         -DE/DX =   -0.0001              !
 ! R6    R(4,6)                  0.9871         -DE/DX =    0.0                 !
 ! A1    A(2,1,3)              100.3916         -DE/DX =    0.0                 !
 ! A2    A(1,2,4)              179.9954         -DE/DX =    0.0                 !
 ! A3    A(1,2,5)              156.3322         -DE/DX =    0.0                 !
 ! A4    A(2,4,6)              110.5681         -DE/DX =    0.0                 !
 ! A5    A(5,4,6)              100.924          -DE/DX =    0.0                 !
 ! D1    D(3,1,2,4)             -7.0483         -DE/DX =    0.0                 !
 ! D2    D(3,1,2,5)            122.9851         -DE/DX =    0.0                 !
 ! D3    D(1,2,4,6)           -118.8244         -DE/DX =    0.0                 !
 ! D4    D(2,4,5,6)            117.2022         -DE/DX =    0.0001              !
 --------------------------------------------------------------------------------
 GradGradGradGradGradGradGradGradGradGradGradGradGradGradGradGradGradGrad

                          Input orientation:                          
 ---------------------------------------------------------------------
 Center     Atomic      Atomic             Coordinates (Angstroms)
 Number     Number       Type             X           Y           Z
 ---------------------------------------------------------------------
      1          8           0       -2.303754    0.455569   -0.175062
      2          1           0       -1.349330    0.693909   -0.067760
      3          1           0       -2.732310    1.275114    0.172803
      4          8           0        0.338147    1.115450    0.121996
      5          1           0        0.807401    0.451228    0.681597
      6          1           0        0.819563    1.012756   -0.733574
 ---------------------------------------------------------------------
                    Distance matrix (angstroms):
                    1          2          3          4          5
     1  O    0.000000
     2  H    0.989568   0.000000
     3  H    0.988092   1.519311   0.000000
     4  O    2.739220   1.749652   3.075026   0.000000
     5  H    3.226944   2.296066   3.669771   0.987189   0.000000
     6  H    3.221414   2.291085   3.675072   0.987070   1.522554
                    6
     6  H    0.000000
 Stoichiometry    H4O2
 Framework group  C1[X(H4O2)]
 Deg. of freedom    12
 Full point group                 C1      NOp   1
 Largest Abelian subgroup         C1      NOp   1
 Largest concise Abelian subgroup C1      NOp   1
                         Standard orientation:                         
 ---------------------------------------------------------------------
 Center     Atomic      Atomic             Coordinates (Angstroms)
 Number     Number       Type             X           Y           Z
 ---------------------------------------------------------------------
      1          8           0       -1.439856    0.113316   -0.050401
      2          1           0       -0.454148    0.033867   -0.014169
      3          1           0       -1.703139   -0.758358    0.333256
      4          8           0        1.288667   -0.106726    0.049964
      5          1           0        1.685750    0.010799   -0.846170
      6          1           0        1.681049    0.660970    0.530575
 ---------------------------------------------------------------------
 Rotational constants (GHZ):    201.7825403      7.2410796      7.2230741

 **********************************************************************

            Population analysis using the SCF density.

 **********************************************************************

 Orbital symmetries:
       Occupied  (A) (A) (A) (A) (A) (A) (A) (A) (A) (A)
       Virtual   (A) (A) (A) (A)
 The electronic state is 1-A.
 Alpha  occ. eigenvalues --  -20.29439 -20.18599  -1.29701  -1.21291  -0.63153
 Alpha  occ. eigenvalues --   -0.57648  -0.49422  -0.44252  -0.38868  -0.34701
 Alpha virt. eigenvalues --    0.54215   0.65446   0.66376   0.78185
          Condensed to atoms (all electrons):
               1          2          3          4          5          6
     1  O    7.880029   0.254514   0.252130  -0.004284   0.000258   0.000256
     2  H    0.254514   0.582688  -0.044665   0.015456  -0.002177  -0.002212
     3  H    0.252130  -0.044665   0.650820   0.000381  -0.000011  -0.000010
     4  O   -0.004284   0.015456   0.000381   7.805476   0.258130   0.258164
     5  H    0.000258  -0.002177  -0.000011   0.258130   0.598432  -0.043802
     6  H    0.000256  -0.002212  -0.000010   0.258164  -0.043802   0.598295
 Mulliken charges:
               1
     1  O   -0.382904
     2  H    0.196396
     3  H    0.141355
     4  O   -0.333324
     5  H    0.189169
     6  H    0.189309
 Sum of Mulliken charges =   0.00000
 Mulliken charges with hydrogens summed into heavy atoms:
               1
     1  O   -0.045153
     4  O    0.045153
 Electronic spatial extent (au):  <R**2>=            170.1168
 Charge=              0.0000 electrons
 Dipole moment (field-independent basis, Debye):
    X=              2.8270    Y=              0.0477    Z=             -0.0558  Tot=              2.8280
 Quadrupole moment (field-independent basis, Debye-Ang):
   XX=            -10.5862   YY=            -10.7544   ZZ=            -10.5334
   XY=              4.1352   XZ=             -1.8881   YZ=              0.1759
 Traceless Quadrupole moment (field-independent basis, Debye-Ang):
   XX=              0.0385   YY=             -0.1298   ZZ=              0.0913
   XY=              4.1352   XZ=             -1.8881   YZ=              0.1759
 Octapole moment (field-independent basis, Debye-Ang**2):
  XXX=             10.4603  YYY=              0.0597  ZZZ=             -0.4954  XYY=             -0.0547
  XXY=              0.0582  XXZ=             -0.1421  XZZ=              2.2929  YZZ=              0.1707
  YYZ=              0.3811  XYZ=              1.3645
 Hexadecapole moment (field-independent basis, Debye-Ang**3):
 XXXX=           -131.9326 YYYY=            -10.0099 ZZZZ=             -9.7477 XXXY=             10.7517
 XXXZ=             -4.9391 YYYX=              1.0756 YYYZ=              0.0135 ZZZX=             -0.9008
 ZZZY=              0.0485 XXYY=            -22.8320 XXZZ=            -22.1758 YYZZ=             -3.2998
 XXYZ=              0.4736 YYXZ=              0.1949 ZZXY=              0.4616
 N-N= 3.737139947536D+01 E-N=-4.319880326078D+02  KE= 1.491042469546D+02
 1\1\GINC-LEGION\FOpt\RHF\STO-3G\H4O2\HIMANSHU\18-Feb-2025\0\\# opt hf/
 sto-3g geom=connectivity\\Title Card Required\\0,1\O,-2.3037539652,0.4
 55568615,-0.175061671\H,-1.3493300641,0.6939091201,-0.0677603251\H,-2.
 7323104059,1.2751144019,0.1728025228\O,0.3381472151,1.1154495145,0.121
 9959093\H,0.8074009918,0.4512282457,0.6815972246\H,0.8195634482,1.0127
 562829,-0.7335736605\\Version=AM64L-G09RevD.01\State=1-A\HF=-149.94124
 35\RMSD=2.918e-09\RMSF=6.205e-05\Dipole=1.0990184,0.1507546,0.0856993\
 Quadrupole=1.2054987,-1.1256605,-0.0798382,-2.8973857,-1.1887349,-0.52
 5162\PG=C01 [X(H4O2)]\\@


 The chemist is a guest at the physicist's table and
 frequently dines well.
                   -- Richard Bersohn
 Job cpu time:       0 days  0 hours  0 minutes 11.2 seconds.
 File lengths (MBytes):  RWF=      5 Int=      0 D2E=      0 Chk=      1 Scr=      1
 Normal termination of Gaussian 09 at Tue Feb 18 22:36:07 2025.
