 Entering Gaussian System, Link 0=g09
 Input=/home/himanshu/git/molecular-modeling/a1/q1/r2/bromo_ethane.com
 Output=/home/himanshu/git/molecular-modeling/a1/q1/r2/bromo_ethane.log
 Initial command:
 /home/himanshu/work/Gview_and_Gaussian/g09/l1.exe "/home/himanshu/work/Gview_and_Gaussian/g09/scratch/Gau-48273.inp" -scrdir="/home/himanshu/work/Gview_and_Gaussian/g09/scratch/"
 Entering Link 1 = /home/himanshu/work/Gview_and_Gaussian/g09/l1.exe PID=     48275.
  
 Copyright (c) 1988,1990,1992,1993,1995,1998,2003,2009,2013,
            Gaussian, Inc.  All Rights Reserved.
  
 This is part of the Gaussian(R) 09 program.  It is based on
 the Gaussian(R) 03 system (copyright 2003, Gaussian, Inc.),
 the Gaussian(R) 98 system (copyright 1998, Gaussian, Inc.),
 the Gaussian(R) 94 system (copyright 1995, Gaussian, Inc.),
 the Gaussian 92(TM) system (copyright 1992, Gaussian, Inc.),
 the Gaussian 90(TM) system (copyright 1990, Gaussian, Inc.),
 the Gaussian 88(TM) system (copyright 1988, Gaussian, Inc.),
 the Gaussian 86(TM) system (copyright 1986, Carnegie Mellon
 University), and the Gaussian 82(TM) system (copyright 1983,
 Carnegie Mellon University). Gaussian is a federally registered
 trademark of Gaussian, Inc.
  
 This software contains proprietary and confidential information,
 including trade secrets, belonging to Gaussian, Inc.
  
 This software is provided under written license and may be
 used, copied, transmitted, or stored only in accord with that
 written license.
  
 The following legend is applicable only to US Government
 contracts under FAR:
  
                    RESTRICTED RIGHTS LEGEND
  
 Use, reproduction and disclosure by the US Government is
 subject to restrictions as set forth in subparagraphs (a)
 and (c) of the Commercial Computer Software - Restricted
 Rights clause in FAR 52.227-19.
  
 Gaussian, Inc.
 340 Quinnipiac St., Bldg. 40, Wallingford CT 06492
  
  
 ---------------------------------------------------------------
 Warning -- This program may not be used in any manner that
 competes with the business of Gaussian, Inc. or will provide
 assistance to any competitor of Gaussian, Inc.  The licensee
 of this program is prohibited from giving any competitor of
 Gaussian, Inc. access to this program.  By using this program,
 the user acknowledges that Gaussian, Inc. is engaged in the
 business of creating and licensing software in the field of
 computational chemistry and represents and warrants to the
 licensee that it is not a competitor of Gaussian, Inc. and that
 it will not use this program in any manner prohibited above.
 ---------------------------------------------------------------
  

 Cite this work as:
 Gaussian 09, Revision D.01,
 M. J. Frisch, G. W. Trucks, H. B. Schlegel, G. E. Scuseria, 
 M. A. Robb, J. R. Cheeseman, G. Scalmani, V. Barone, B. Mennucci, 
 G. A. Petersson, H. Nakatsuji, M. Caricato, X. Li, H. P. Hratchian, 
 A. F. Izmaylov, J. Bloino, G. Zheng, J. L. Sonnenberg, M. Hada, 
 M. Ehara, K. Toyota, R. Fukuda, J. Hasegawa, M. Ishida, T. Nakajima, 
 Y. Honda, O. Kitao, H. Nakai, T. Vreven, J. A. Montgomery, Jr., 
 J. E. Peralta, F. Ogliaro, M. Bearpark, J. J. Heyd, E. Brothers, 
 K. N. Kudin, V. N. Staroverov, T. Keith, R. Kobayashi, J. Normand, 
 K. Raghavachari, A. Rendell, J. C. Burant, S. S. Iyengar, J. Tomasi, 
 M. Cossi, N. Rega, J. M. Millam, M. Klene, J. E. Knox, J. B. Cross, 
 V. Bakken, C. Adamo, J. Jaramillo, R. Gomperts, R. E. Stratmann, 
 O. Yazyev, A. J. Austin, R. Cammi, C. Pomelli, J. W. Ochterski, 
 R. L. Martin, K. Morokuma, V. G. Zakrzewski, G. A. Voth, 
 P. Salvador, J. J. Dannenberg, S. Dapprich, A. D. Daniels, 
 O. Farkas, J. B. Foresman, J. V. Ortiz, J. Cioslowski, 
 and D. J. Fox, Gaussian, Inc., Wallingford CT, 2013.
 
 ******************************************
 Gaussian 09:  AM64L-G09RevD.01 24-Apr-2013
                17-Feb-2025 
 ******************************************
 %chk=bromo_ethane.chk
 -----------------------------
 # hf/sto-3g geom=connectivity
 -----------------------------
 1/38=1,57=2/1;
 2/12=2,17=6,18=5,40=1/2;
 3/6=3,11=9,16=1,25=1,30=1/1,2,3;
 4//1;
 5/5=2,38=5/2;
 6/7=2,8=2,9=2,10=2,28=1/1;
 99/5=1,9=1/99;
 -------------------
 Title Card Required
 -------------------
 Symbolic Z-matrix:
 Charge =  0 Multiplicity = 1
 C                     2.07996  -0.39277  0. 
 C                     0.97676   0.68288  0. 
 H                     2.00532  -1.0224    0.88156 
 H                     2.0053   -1.02243  -0.88154 
 H                     3.05548   0.08675  -0.00002 
 H                     1.07513   1.31712  -0.88003 
 H                     1.07513   1.31711   0.88003 
 Br                   -0.78733  -0.06905  0. 
 
                          Input orientation:                          
 ---------------------------------------------------------------------
 Center     Atomic      Atomic             Coordinates (Angstroms)
 Number     Number       Type             X           Y           Z
 ---------------------------------------------------------------------
      1          6           0        2.079961   -0.392766    0.000000
      2          6           0        0.976762    0.682881    0.000000
      3          1           0        2.005325   -1.022401    0.881556
      4          1           0        2.005300   -1.022428   -0.881535
      5          1           0        3.055484    0.086752   -0.000021
      6          1           0        1.075131    1.317117   -0.880028
      7          1           0        1.075130    1.317112    0.880032
      8         35           0       -0.787335   -0.069053    0.000000
 ---------------------------------------------------------------------
                    Distance matrix (angstroms):
                    1          2          3          4          5
     1  C    0.000000
     2  C    1.540800   0.000000
     3  H    1.085887   2.177859   0.000000
     4  H    1.085888   2.177860   1.763091   0.000000
     5  H    1.087007   2.162512   1.763585   1.763585   0.000000
     6  H    2.169754   1.089211   3.072749   2.517675   2.491990
     7  H    2.169752   1.089211   2.517654   3.072748   2.492004
     8  Br   2.885511   1.917666   3.079766   3.079746   3.845976
                    6          7          8
     6  H    0.000000
     7  H    1.760060   0.000000
     8  Br   2.482880   2.482877   0.000000
 Stoichiometry    C2H5Br
 Framework group  C1[X(C2H5Br)]
 Deg. of freedom    18
 Full point group                 C1      NOp   1
 Largest Abelian subgroup         C1      NOp   1
 Largest concise Abelian subgroup C1      NOp   1
                         Standard orientation:                         
 ---------------------------------------------------------------------
 Center     Atomic      Atomic             Coordinates (Angstroms)
 Number     Number       Type             X           Y           Z
 ---------------------------------------------------------------------
      1          6           0        2.079961   -0.392766    0.000000
      2          6           0        0.976762    0.682881    0.000000
      3          1           0        2.005325   -1.022401    0.881556
      4          1           0        2.005300   -1.022428   -0.881535
      5          1           0        3.055484    0.086752   -0.000021
      6          1           0        1.075131    1.317117   -0.880028
      7          1           0        1.075130    1.317112    0.880032
      8         35           0       -0.787335   -0.069053    0.000000
 ---------------------------------------------------------------------
 Rotational constants (GHZ):     30.5686560      3.8041291      3.5309622
 Standard basis: STO-3G (5D, 7F)
 There are    34 symmetry adapted cartesian basis functions of A   symmetry.
 There are    33 symmetry adapted basis functions of A   symmetry.
    33 basis functions,   102 primitive gaussians,    34 cartesian basis functions
    26 alpha electrons       26 beta electrons
       nuclear repulsion energy       164.8877718831 Hartrees.
 NAtoms=    8 NActive=    8 NUniq=    8 SFac= 1.00D+00 NAtFMM=   60 NAOKFM=F Big=F
 Integral buffers will be    131072 words long.
 Raffenetti 1 integral format.
 Two-electron integral symmetry is turned on.
 One-electron integrals computed using PRISM.
 NBasis=    33 RedAO= T EigKep=  2.13D-01  NBF=    33
 NBsUse=    33 1.00D-06 EigRej= -1.00D+00 NBFU=    33
 ExpMin= 1.69D-01 ExpMax= 2.63D+03 ExpMxC= 2.63D+03 IAcc=1 IRadAn=         1 AccDes= 0.00D+00
 Harris functional with IExCor=  205 and IRadAn=       1 diagonalized for initial guess.
 HarFok:  IExCor=  205 AccDes= 0.00D+00 IRadAn=         1 IDoV= 1 UseB2=F ITyADJ=14
 ICtDFT=  3500011 ScaDFX=  1.000000  1.000000  1.000000  1.000000
 FoFCou: FMM=F IPFlag=           0 FMFlag=      100000 FMFlg1=           0
         NFxFlg=           0 DoJE=T BraDBF=F KetDBF=T FulRan=T
         wScrn=  0.000000 ICntrl=     500 IOpCl=  0 I1Cent=   200000004 NGrid=           0
         NMat0=    1 NMatS0=      1 NMatT0=    0 NMatD0=    1 NMtDS0=    0 NMtDT0=    0
 Petite list used in FoFCou.
 Keep R1 ints in memory in canonical form, NReq=1014727.
 Requested convergence on RMS density matrix=1.00D-08 within 128 cycles.
 Requested convergence on MAX density matrix=1.00D-06.
 Requested convergence on             energy=1.00D-06.
 No special actions if energy rises.
 SCF Done:  E(RHF) =  -2622.39474053     A.U. after   10 cycles
            NFock= 10  Conv=0.31D-08     -V/T= 2.0002

 **********************************************************************

            Population analysis using the SCF density.

 **********************************************************************

 Orbital symmetries:
       Occupied  (A) (A) (A) (A) (A) (A) (A) (A) (A) (A) (A) (A)
                 (A) (A) (A) (A) (A) (A) (A) (A) (A) (A) (A) (A)
                 (A) (A)
       Virtual   (A) (A) (A) (A) (A) (A) (A)
 The electronic state is 1-A.
 Alpha  occ. eigenvalues -- -484.45583 -63.18260 -57.73268 -57.73036 -57.73035
 Alpha  occ. eigenvalues --  -11.08915 -11.05770  -9.12971  -6.88135  -6.86864
 Alpha  occ. eigenvalues --   -6.86858  -2.23819  -2.23351  -2.23346  -2.22059
 Alpha  occ. eigenvalues --   -2.22059  -1.02518  -0.88113  -0.76657  -0.60764
 Alpha  occ. eigenvalues --   -0.56032  -0.50701  -0.49207  -0.41029  -0.30468
 Alpha  occ. eigenvalues --   -0.30459
 Alpha virt. eigenvalues --    0.36884   0.62678   0.65130   0.66785   0.73372
 Alpha virt. eigenvalues --    0.75802   0.76020
          Condensed to atoms (all electrons):
               1          2          3          4          5          6
     1  C    4.726719   0.359480   0.385150   0.385149   0.382836  -0.021786
     2  C    0.359480   4.832571  -0.021028  -0.021028  -0.019554   0.381780
     3  H    0.385150  -0.021028   0.609930  -0.021442  -0.021044   0.001791
     4  H    0.385149  -0.021028  -0.021442   0.609930  -0.021044  -0.002237
     5  H    0.382836  -0.019554  -0.021044  -0.021044   0.614058  -0.001877
     6  H   -0.021786   0.381780   0.001791  -0.002237  -0.001877   0.607936
     7  H   -0.021786   0.381780  -0.002237   0.001791  -0.001877  -0.023440
     8  Br  -0.019782   0.245247  -0.001173  -0.001174   0.000860  -0.021373
               7          8
     1  C   -0.021786  -0.019782
     2  C    0.381780   0.245247
     3  H   -0.002237  -0.001173
     4  H    0.001791  -0.001174
     5  H   -0.001877   0.000860
     6  H   -0.023440  -0.021373
     7  H    0.607937  -0.021373
     8  Br  -0.021373  34.869697
 Mulliken charges:
               1
     1  C   -0.175980
     2  C   -0.139250
     3  H    0.070053
     4  H    0.070054
     5  H    0.067643
     6  H    0.079205
     7  H    0.079205
     8  Br  -0.050929
 Sum of Mulliken charges =   0.00000
 Mulliken charges with hydrogens summed into heavy atoms:
               1
     1  C    0.031770
     2  C    0.019160
     8  Br  -0.050929
 Electronic spatial extent (au):  <R**2>=            371.0637
 Charge=              0.0000 electrons
 Dipole moment (field-independent basis, Debye):
    X=              1.6610    Y=              0.5851    Z=              0.0000  Tot=              1.7611
 Quadrupole moment (field-independent basis, Debye-Ang):
   XX=            -29.0378   YY=            -29.2586   ZZ=            -29.4992
   XY=              0.5922   XZ=              0.0000   YZ=              0.0000
 Traceless Quadrupole moment (field-independent basis, Debye-Ang):
   XX=              0.2274   YY=              0.0066   ZZ=             -0.2340
   XY=              0.5922   XZ=              0.0000   YZ=              0.0000
 Octapole moment (field-independent basis, Debye-Ang**2):
  XXX=            -25.0104  YYY=             -1.6284  ZZZ=              0.0000  XYY=             -8.0129
  XXY=             -0.7555  XXZ=              0.0000  XZZ=             -7.8125  YZZ=             -0.5072
  YYZ=              0.0000  XYZ=              0.0000
 Hexadecapole moment (field-independent basis, Debye-Ang**3):
 XXXX=           -317.4980 YYYY=            -68.1336 ZZZZ=            -37.9780 XXXY=              6.4444
 XXXZ=             -0.0001 YYYX=              2.5780 YYYZ=              0.0000 ZZZX=              0.0001
 ZZZY=              0.0000 XXYY=            -65.4814 XXZZ=            -61.1216 YYZZ=            -15.9155
 XXYZ=             -0.0001 YYXZ=              0.0000 ZZXY=              0.3813
 N-N= 1.648877718831D+02 E-N=-6.616845494123D+03  KE= 2.621746077288D+03
 1\1\GINC-LEGION\SP\RHF\STO-3G\C2H5Br1\HIMANSHU\17-Feb-2025\0\\# hf/sto
 -3g geom=connectivity\\Title Card Required\\0,1\C,0,2.07996092,-0.3927
 6609,-0.00000016\C,0,0.97676214,0.68288144,-0.00000017\H,0,2.00532494,
 -1.02240058,0.88155613\H,0,2.00530031,-1.02242758,-0.88153534\H,0,3.05
 54844,0.08675163,-0.00002102\H,0,1.07513061,1.31711716,-0.88002825\H,0
 ,1.0751298,1.31711151,0.88003166\Br,0,-0.78733453,-0.06905269,-0.00000
 003\\Version=AM64L-G09RevD.01\State=1-A\HF=-2622.3947405\RMSD=3.141e-0
 9\Dipole=0.6534885,0.2302112,0.0000003\Quadrupole=0.1690574,0.0048853,
 -0.1739427,0.4402594,0.0000002,-0.0000007\PG=C01 [X(C2H5Br1)]\\@


 HICKORY, DICKORY, DOCK
 TWO MICE RAN UP THE CLOCK
 THE CLOCK STRUCK ONE...
 THE OTHER ESCAPED WITH MINOR INJURIES.
 Job cpu time:       0 days  0 hours  0 minutes  1.2 seconds.
 File lengths (MBytes):  RWF=      5 Int=      0 D2E=      0 Chk=      1 Scr=      1
 Normal termination of Gaussian 09 at Mon Feb 17 21:54:51 2025.
