 Entering Gaussian System, Link 0=g09
 Input=/home/himanshu/git/molecular-modeling/a1/q1/r2/ethyl_alcohol.com
 Output=/home/himanshu/git/molecular-modeling/a1/q1/r2/ethyl_alcohol.log
 Initial command:
 /home/himanshu/work/Gview_and_Gaussian/g09/l1.exe "/home/himanshu/work/Gview_and_Gaussian/g09/scratch/Gau-51715.inp" -scrdir="/home/himanshu/work/Gview_and_Gaussian/g09/scratch/"
 Entering Link 1 = /home/himanshu/work/Gview_and_Gaussian/g09/l1.exe PID=     51717.
  
 Copyright (c) 1988,1990,1992,1993,1995,1998,2003,2009,2013,
            Gaussian, Inc.  All Rights Reserved.
  
 This is part of the Gaussian(R) 09 program.  It is based on
 the Gaussian(R) 03 system (copyright 2003, Gaussian, Inc.),
 the Gaussian(R) 98 system (copyright 1998, Gaussian, Inc.),
 the Gaussian(R) 94 system (copyright 1995, Gaussian, Inc.),
 the Gaussian 92(TM) system (copyright 1992, Gaussian, Inc.),
 the Gaussian 90(TM) system (copyright 1990, Gaussian, Inc.),
 the Gaussian 88(TM) system (copyright 1988, Gaussian, Inc.),
 the Gaussian 86(TM) system (copyright 1986, Carnegie Mellon
 University), and the Gaussian 82(TM) system (copyright 1983,
 Carnegie Mellon University). Gaussian is a federally registered
 trademark of Gaussian, Inc.
  
 This software contains proprietary and confidential information,
 including trade secrets, belonging to Gaussian, Inc.
  
 This software is provided under written license and may be
 used, copied, transmitted, or stored only in accord with that
 written license.
  
 The following legend is applicable only to US Government
 contracts under FAR:
  
                    RESTRICTED RIGHTS LEGEND
  
 Use, reproduction and disclosure by the US Government is
 subject to restrictions as set forth in subparagraphs (a)
 and (c) of the Commercial Computer Software - Restricted
 Rights clause in FAR 52.227-19.
  
 Gaussian, Inc.
 340 Quinnipiac St., Bldg. 40, Wallingford CT 06492
  
  
 ---------------------------------------------------------------
 Warning -- This program may not be used in any manner that
 competes with the business of Gaussian, Inc. or will provide
 assistance to any competitor of Gaussian, Inc.  The licensee
 of this program is prohibited from giving any competitor of
 Gaussian, Inc. access to this program.  By using this program,
 the user acknowledges that Gaussian, Inc. is engaged in the
 business of creating and licensing software in the field of
 computational chemistry and represents and warrants to the
 licensee that it is not a competitor of Gaussian, Inc. and that
 it will not use this program in any manner prohibited above.
 ---------------------------------------------------------------
  

 Cite this work as:
 Gaussian 09, Revision D.01,
 M. J. Frisch, G. W. Trucks, H. B. Schlegel, G. E. Scuseria, 
 M. A. Robb, J. R. Cheeseman, G. Scalmani, V. Barone, B. Mennucci, 
 G. A. Petersson, H. Nakatsuji, M. Caricato, X. Li, H. P. Hratchian, 
 A. F. Izmaylov, J. Bloino, G. Zheng, J. L. Sonnenberg, M. Hada, 
 M. Ehara, K. Toyota, R. Fukuda, J. Hasegawa, M. Ishida, T. Nakajima, 
 Y. Honda, O. Kitao, H. Nakai, T. Vreven, J. A. Montgomery, Jr., 
 J. E. Peralta, F. Ogliaro, M. Bearpark, J. J. Heyd, E. Brothers, 
 K. N. Kudin, V. N. Staroverov, T. Keith, R. Kobayashi, J. Normand, 
 K. Raghavachari, A. Rendell, J. C. Burant, S. S. Iyengar, J. Tomasi, 
 M. Cossi, N. Rega, J. M. Millam, M. Klene, J. E. Knox, J. B. Cross, 
 V. Bakken, C. Adamo, J. Jaramillo, R. Gomperts, R. E. Stratmann, 
 O. Yazyev, A. J. Austin, R. Cammi, C. Pomelli, J. W. Ochterski, 
 R. L. Martin, K. Morokuma, V. G. Zakrzewski, G. A. Voth, 
 P. Salvador, J. J. Dannenberg, S. Dapprich, A. D. Daniels, 
 O. Farkas, J. B. Foresman, J. V. Ortiz, J. Cioslowski, 
 and D. J. Fox, Gaussian, Inc., Wallingford CT, 2013.
 
 ******************************************
 Gaussian 09:  AM64L-G09RevD.01 24-Apr-2013
                17-Feb-2025 
 ******************************************
 %chk=ethyl_alcohol.chk
 -----------------------------
 # hf/sto-3g geom=connectivity
 -----------------------------
 1/38=1,57=2/1;
 2/12=2,17=6,18=5,40=1/2;
 3/6=3,11=9,16=1,25=1,30=1/1,2,3;
 4//1;
 5/5=2,38=5/2;
 6/7=2,8=2,9=2,10=2,28=1/1;
 99/5=1,9=1/99;
 -------------------
 Title Card Required
 -------------------
 Symbolic Z-matrix:
 Charge =  0 Multiplicity = 1
 C                     0.09507   0.54651  -0.00001 
 C                    -1.24303  -0.21923   0.00003 
 H                     0.14439   1.19557  -0.88352 
 H                     0.14434   1.19571   0.88341 
 H                    -1.31775  -0.84666   0.88278 
 H                    -2.07435   0.47916  -0.00342 
 H                    -1.3146   -0.85163  -0.87943 
 O                     1.16518  -0.41038  -0.00004 
 H                     1.98436   0.14717   0.00035 
 
                          Input orientation:                          
 ---------------------------------------------------------------------
 Center     Atomic      Atomic             Coordinates (Angstroms)
 Number     Number       Type             X           Y           Z
 ---------------------------------------------------------------------
      1          6           0        0.095066    0.546513   -0.000009
      2          6           0       -1.243034   -0.219227    0.000029
      3          1           0        0.144390    1.195569   -0.883519
      4          1           0        0.144336    1.195710    0.883411
      5          1           0       -1.317750   -0.846660    0.882779
      6          1           0       -2.074347    0.479161   -0.003423
      7          1           0       -1.314597   -0.851634   -0.879431
      8          8           0        1.165177   -0.410380   -0.000036
      9          1           0        1.984358    0.147174    0.000355
 ---------------------------------------------------------------------
                    Distance matrix (angstroms):
                    1          2          3          4          5
     1  C    0.000000
     2  C    1.541709   0.000000
     3  H    1.097405   2.169619   0.000000
     4  H    1.097412   2.169609   1.766930   0.000000
     5  H    2.171703   1.085589   3.070563   2.511766   0.000000
     6  H    2.170461   1.085743   2.492108   2.494488   1.765105
     7  H    2.171485   1.085592   2.513901   3.070458   1.762220
     8  O    1.435542   2.415785   2.098003   2.098122   2.671072
     9  H    1.931035   3.248124   2.294744   2.294536   3.559536
                    6          7          8          9
     6  H    0.000000
     7  H    1.765113   0.000000
     8  O    3.359436   2.667830   0.000000
     9  H    4.072262   3.557351   0.990921   0.000000
 Stoichiometry    C2H6O
 Framework group  C1[X(C2H6O)]
 Deg. of freedom    21
 Full point group                 C1      NOp   1
 Largest Abelian subgroup         C1      NOp   1
 Largest concise Abelian subgroup C1      NOp   1
                         Standard orientation:                         
 ---------------------------------------------------------------------
 Center     Atomic      Atomic             Coordinates (Angstroms)
 Number     Number       Type             X           Y           Z
 ---------------------------------------------------------------------
      1          6           0        0.095066    0.546513   -0.000009
      2          6           0       -1.243034   -0.219227    0.000029
      3          1           0        0.144390    1.195569   -0.883519
      4          1           0        0.144336    1.195710    0.883411
      5          1           0       -1.317750   -0.846660    0.882779
      6          1           0       -2.074347    0.479161   -0.003423
      7          1           0       -1.314597   -0.851634   -0.879431
      8          8           0        1.165177   -0.410380   -0.000036
      9          1           0        1.984358    0.147174    0.000355
 ---------------------------------------------------------------------
 Rotational constants (GHZ):     34.9386034      9.1396658      7.9607662
 Standard basis: STO-3G (5D, 7F)
 There are    21 symmetry adapted cartesian basis functions of A   symmetry.
 There are    21 symmetry adapted basis functions of A   symmetry.
    21 basis functions,    63 primitive gaussians,    21 cartesian basis functions
    13 alpha electrons       13 beta electrons
       nuclear repulsion energy        81.0789264430 Hartrees.
 NAtoms=    9 NActive=    9 NUniq=    9 SFac= 1.00D+00 NAtFMM=   60 NAOKFM=F Big=F
 Integral buffers will be    131072 words long.
 Raffenetti 1 integral format.
 Two-electron integral symmetry is turned on.
 One-electron integrals computed using PRISM.
 NBasis=    21 RedAO= T EigKep=  2.12D-01  NBF=    21
 NBsUse=    21 1.00D-06 EigRej= -1.00D+00 NBFU=    21
 ExpMin= 1.69D-01 ExpMax= 1.31D+02 ExpMxC= 1.31D+02 IAcc=1 IRadAn=         1 AccDes= 0.00D+00
 Harris functional with IExCor=  205 and IRadAn=       1 diagonalized for initial guess.
 HarFok:  IExCor=  205 AccDes= 0.00D+00 IRadAn=         1 IDoV= 1 UseB2=F ITyADJ=14
 ICtDFT=  3500011 ScaDFX=  1.000000  1.000000  1.000000  1.000000
 FoFCou: FMM=F IPFlag=           0 FMFlag=      100000 FMFlg1=           0
         NFxFlg=           0 DoJE=T BraDBF=F KetDBF=T FulRan=T
         wScrn=  0.000000 ICntrl=     500 IOpCl=  0 I1Cent=   200000004 NGrid=           0
         NMat0=    1 NMatS0=      1 NMatT0=    0 NMatD0=    1 NMtDS0=    0 NMtDT0=    0
 Petite list used in FoFCou.
 Keep R1 ints in memory in canonical form, NReq=858187.
 Requested convergence on RMS density matrix=1.00D-08 within 128 cycles.
 Requested convergence on MAX density matrix=1.00D-06.
 Requested convergence on             energy=1.00D-06.
 No special actions if energy rises.
 SCF Done:  E(RHF) =  -152.132674807     A.U. after   10 cycles
            NFock= 10  Conv=0.33D-08     -V/T= 2.0086

 **********************************************************************

            Population analysis using the SCF density.

 **********************************************************************

 Orbital symmetries:
       Occupied  (A) (A) (A) (A) (A) (A) (A) (A) (A) (A) (A) (A)
                 (A)
       Virtual   (A) (A) (A) (A) (A) (A) (A) (A)
 The electronic state is 1-A.
 Alpha  occ. eigenvalues --  -20.25524 -11.08890 -11.03829  -1.27629  -0.96322
 Alpha  occ. eigenvalues --   -0.79438  -0.61360  -0.60143  -0.51423  -0.48591
 Alpha  occ. eigenvalues --   -0.47200  -0.40799  -0.35327
 Alpha virt. eigenvalues --    0.55970   0.64467   0.64549   0.69838   0.70471
 Alpha virt. eigenvalues --    0.76285   0.77403   0.77794
          Condensed to atoms (all electrons):
               1          2          3          4          5          6
     1  C    4.718118   0.357623   0.375662   0.375659  -0.020521  -0.018896
     2  C    0.357623   4.732424  -0.022816  -0.022815   0.384627   0.383813
     3  H    0.375662  -0.022816   0.650093  -0.028132   0.001804  -0.001720
     4  H    0.375659  -0.022815  -0.028132   0.650083  -0.002384  -0.001683
     5  H   -0.020521   0.384627   0.001804  -0.002384   0.612686  -0.021026
     6  H   -0.018896   0.383813  -0.001720  -0.001683  -0.021026   0.618654
     7  H   -0.020530   0.384608  -0.002349   0.001804  -0.021554  -0.021014
     8  O    0.262508  -0.018037  -0.015682  -0.015670  -0.000514   0.000550
     9  H   -0.040553   0.002606  -0.003370  -0.003377   0.000016  -0.000077
               7          8          9
     1  C   -0.020530   0.262508  -0.040553
     2  C    0.384608  -0.018037   0.002606
     3  H   -0.002349  -0.015682  -0.003370
     4  H    0.001804  -0.015670  -0.003377
     5  H   -0.021554  -0.000514   0.000016
     6  H   -0.021014   0.000550  -0.000077
     7  H    0.612614  -0.000527   0.000017
     8  O   -0.000527   7.822938   0.252222
     9  H    0.000017   0.252222   0.621843
 Mulliken charges:
               1
     1  C    0.010930
     2  C   -0.182034
     3  H    0.046510
     4  H    0.046515
     5  H    0.066866
     6  H    0.061399
     7  H    0.066930
     8  O   -0.287789
     9  H    0.170673
 Sum of Mulliken charges =   0.00000
 Mulliken charges with hydrogens summed into heavy atoms:
               1
     1  C    0.103954
     2  C    0.013161
     8  O   -0.117116
 Electronic spatial extent (au):  <R**2>=            193.8964
 Charge=              0.0000 electrons
 Dipole moment (field-independent basis, Debye):
    X=              0.0825    Y=              1.4341    Z=              0.0005  Tot=              1.4365
 Quadrupole moment (field-independent basis, Debye-Ang):
   XX=            -16.6669   YY=            -18.9588   ZZ=            -18.5045
   XY=              1.7426   XZ=              0.0012   YZ=              0.0003
 Traceless Quadrupole moment (field-independent basis, Debye-Ang):
   XX=              1.3765   YY=             -0.9154   ZZ=             -0.4611
   XY=              1.7426   XZ=              0.0012   YZ=              0.0003
 Octapole moment (field-independent basis, Debye-Ang**2):
  XXX=             12.8792  YYY=             -1.8180  ZZZ=              0.0044  XYY=              1.4584
  XXY=              1.9437  XXZ=              0.0009  XZZ=              1.9741  YZZ=             -0.7629
  YYZ=             -0.0035  XYZ=              0.0020
 Hexadecapole moment (field-independent basis, Debye-Ang**3):
 XXXX=           -132.0626 YYYY=            -49.5415 ZZZZ=            -27.1956 XXXY=             -1.1702
 XXXZ=              0.0094 YYYX=             -2.1086 YYYZ=              0.0058 ZZZX=             -0.0075
 ZZZY=             -0.0018 XXYY=            -32.8088 XXZZ=            -29.4994 YYZZ=            -11.6246
 XXYZ=             -0.0060 YYXZ=              0.0042 ZZXY=              0.1602
 N-N= 8.107892644303D+01 E-N=-5.195356926910D+02  KE= 1.508419834183D+02
 1\1\GINC-LEGION\SP\RHF\STO-3G\C2H6O1\HIMANSHU\17-Feb-2025\0\\# hf/sto-
 3g geom=connectivity\\Title Card Required\\0,1\C,0,0.09506613,0.546513
 09,-0.00000869\C,0,-1.2430336,-0.21922659,0.00002881\H,0,0.14438995,1.
 19556902,-0.88351886\H,0,0.1443363,1.19570967,0.88341068\H,0,-1.317749
 54,-0.84666031,0.88277858\H,0,-2.0743469,0.47916077,-0.00342337\H,0,-1
 .31459674,-0.85163394,-0.87943144\O,0,1.1651767,-0.41037977,-0.0000364
 1\H,0,1.98435811,0.14717398,0.00035495\\Version=AM64L-G09RevD.01\State
 =1-A\HF=-152.1326748\RMSD=3.297e-09\Dipole=0.0324766,0.5642372,0.00018
 16\Quadrupole=1.0234134,-0.6806123,-0.3428011,1.2955971,0.0008842,0.00
 02234\PG=C01 [X(C2H6O1)]\\@


 CURIOUSER AND CURIOUSER

                  -- ALICE, IN WONDERLAND
 Job cpu time:       0 days  0 hours  0 minutes  0.9 seconds.
 File lengths (MBytes):  RWF=      5 Int=      0 D2E=      0 Chk=      1 Scr=      1
 Normal termination of Gaussian 09 at Mon Feb 17 22:00:41 2025.
