 Entering Gaussian System, Link 0=g09
 Input=/home/himanshu/git/molecular-modeling/a1/q1/r2/transition_state.com
 Output=/home/himanshu/git/molecular-modeling/a1/q1/r2/transition_state.log
 Initial command:
 /home/himanshu/work/Gview_and_Gaussian/g09/l1.exe "/home/himanshu/work/Gview_and_Gaussian/g09/scratch/Gau-90512.inp" -scrdir="/home/himanshu/work/Gview_and_Gaussian/g09/scratch/"
 Entering Link 1 = /home/himanshu/work/Gview_and_Gaussian/g09/l1.exe PID=     90514.
  
 Copyright (c) 1988,1990,1992,1993,1995,1998,2003,2009,2013,
            Gaussian, Inc.  All Rights Reserved.
  
 This is part of the Gaussian(R) 09 program.  It is based on
 the Gaussian(R) 03 system (copyright 2003, Gaussian, Inc.),
 the Gaussian(R) 98 system (copyright 1998, Gaussian, Inc.),
 the Gaussian(R) 94 system (copyright 1995, Gaussian, Inc.),
 the Gaussian 92(TM) system (copyright 1992, Gaussian, Inc.),
 the Gaussian 90(TM) system (copyright 1990, Gaussian, Inc.),
 the Gaussian 88(TM) system (copyright 1988, Gaussian, Inc.),
 the Gaussian 86(TM) system (copyright 1986, Carnegie Mellon
 University), and the Gaussian 82(TM) system (copyright 1983,
 Carnegie Mellon University). Gaussian is a federally registered
 trademark of Gaussian, Inc.
  
 This software contains proprietary and confidential information,
 including trade secrets, belonging to Gaussian, Inc.
  
 This software is provided under written license and may be
 used, copied, transmitted, or stored only in accord with that
 written license.
  
 The following legend is applicable only to US Government
 contracts under FAR:
  
                    RESTRICTED RIGHTS LEGEND
  
 Use, reproduction and disclosure by the US Government is
 subject to restrictions as set forth in subparagraphs (a)
 and (c) of the Commercial Computer Software - Restricted
 Rights clause in FAR 52.227-19.
  
 Gaussian, Inc.
 340 Quinnipiac St., Bldg. 40, Wallingford CT 06492
  
  
 ---------------------------------------------------------------
 Warning -- This program may not be used in any manner that
 competes with the business of Gaussian, Inc. or will provide
 assistance to any competitor of Gaussian, Inc.  The licensee
 of this program is prohibited from giving any competitor of
 Gaussian, Inc. access to this program.  By using this program,
 the user acknowledges that Gaussian, Inc. is engaged in the
 business of creating and licensing software in the field of
 computational chemistry and represents and warrants to the
 licensee that it is not a competitor of Gaussian, Inc. and that
 it will not use this program in any manner prohibited above.
 ---------------------------------------------------------------
  

 Cite this work as:
 Gaussian 09, Revision D.01,
 M. J. Frisch, G. W. Trucks, H. B. Schlegel, G. E. Scuseria, 
 M. A. Robb, J. R. Cheeseman, G. Scalmani, V. Barone, B. Mennucci, 
 G. A. Petersson, H. Nakatsuji, M. Caricato, X. Li, H. P. Hratchian, 
 A. F. Izmaylov, J. Bloino, G. Zheng, J. L. Sonnenberg, M. Hada, 
 M. Ehara, K. Toyota, R. Fukuda, J. Hasegawa, M. Ishida, T. Nakajima, 
 Y. Honda, O. Kitao, H. Nakai, T. Vreven, J. A. Montgomery, Jr., 
 J. E. Peralta, F. Ogliaro, M. Bearpark, J. J. Heyd, E. Brothers, 
 K. N. Kudin, V. N. Staroverov, T. Keith, R. Kobayashi, J. Normand, 
 K. Raghavachari, A. Rendell, J. C. Burant, S. S. Iyengar, J. Tomasi, 
 M. Cossi, N. Rega, J. M. Millam, M. Klene, J. E. Knox, J. B. Cross, 
 V. Bakken, C. Adamo, J. Jaramillo, R. Gomperts, R. E. Stratmann, 
 O. Yazyev, A. J. Austin, R. Cammi, C. Pomelli, J. W. Ochterski, 
 R. L. Martin, K. Morokuma, V. G. Zakrzewski, G. A. Voth, 
 P. Salvador, J. J. Dannenberg, S. Dapprich, A. D. Daniels, 
 O. Farkas, J. B. Foresman, J. V. Ortiz, J. Cioslowski, 
 and D. J. Fox, Gaussian, Inc., Wallingford CT, 2013.
 
 ******************************************
 Gaussian 09:  AM64L-G09RevD.01 24-Apr-2013
                17-Feb-2025 
 ******************************************
 %chk=transition_state.chk
 -----------------------------
 # hf/sto-3g geom=connectivity
 -----------------------------
 1/38=1,57=2/1;
 2/12=2,17=6,18=5,40=1/2;
 3/6=3,11=9,16=1,25=1,30=1/1,2,3;
 4//1;
 5/5=2,38=5/2;
 6/7=2,8=2,9=2,10=2,28=1/1;
 99/5=1,9=1/99;
 -------------------
 Title Card Required
 -------------------
 Symbolic Z-matrix:
 Charge = -1 Multiplicity = 1
 C                     0.24393  -1.30656   0.26429 
 C                    -0.73831  -0.43971   1.09468 
 H                    -0.12767  -1.40505  -0.75626 
 H                     1.22328  -0.84158   0.22661 
 H                     0.34001  -2.29335   0.70053 
 H                    -1.97878  -0.89086   1.10497 
 Br                   -0.18067  -1.34058   3.53072 
 O                    -0.9255    0.43061  -0.53845 
 H                    -1.61852   0.63991  -4.04484 
 H                    -1.92155   0.30399   1.62917 
 
                          Input orientation:                          
 ---------------------------------------------------------------------
 Center     Atomic      Atomic             Coordinates (Angstroms)
 Number     Number       Type             X           Y           Z
 ---------------------------------------------------------------------
      1          6           0        0.243928   -1.306557    0.264291
      2          6           0       -0.738310   -0.439706    1.094678
      3          1           0       -0.127669   -1.405049   -0.756263
      4          1           0        1.223281   -0.841579    0.226613
      5          1           0        0.340015   -2.293349    0.700525
      6          1           0       -1.978775   -0.890861    1.104969
      7         35           0       -0.180672   -1.340582    3.530718
      8          8           0       -0.925501    0.430610   -0.538451
      9          1           0       -1.618519    0.639909   -4.044842
     10          1           0       -1.921546    0.303985    1.629169
 ---------------------------------------------------------------------
                    Distance matrix (angstroms):
                    1          2          3          4          5
     1  C    0.000000
     2  C    1.551052   0.000000
     3  H    1.090557   2.175029   0.000000
     4  H    1.084784   2.182402   1.763125   0.000000
     5  H    1.083186   2.180397   1.769191   1.764196   0.000000
     6  H    2.412458   1.320000   2.674914   3.320708   2.739951
     7  Br   3.294083   2.656469   4.287792   3.624528   3.031314
     8  O    2.242701   1.860000   2.013361   2.611715   3.249084
     9  H    5.081936   5.324941   4.149607   5.340034   5.912560
    10  H    3.024237   1.496263   3.439342   3.628969   3.566956
                    6          7          8          9         10
     6  H    0.000000
     7  Br   3.052815   0.000000
     8  O    2.357223   4.500003   0.000000
     9  H    5.384570   7.961084   3.580344   0.000000
    10  H    1.306031   3.057961   2.388873   5.692018   0.000000
 Stoichiometry    C2H6BrO(1-)
 Framework group  C1[X(C2H6BrO)]
 Deg. of freedom    24
 Full point group                 C1      NOp   1
 Largest Abelian subgroup         C1      NOp   1
 Largest concise Abelian subgroup C1      NOp   1
                         Standard orientation:                         
 ---------------------------------------------------------------------
 Center     Atomic      Atomic             Coordinates (Angstroms)
 Number     Number       Type             X           Y           Z
 ---------------------------------------------------------------------
      1          6           0        1.551847    1.146359    0.045234
      2          6           0        1.122250   -0.343903    0.027129
      3          1           0        2.541952    1.236528    0.493427
      4          1           0        1.597750    1.541412   -0.964015
      5          1           0        0.849603    1.736041    0.621792
      6          1           0        1.138163   -0.923799    1.212822
      7         35           0       -1.517426   -0.048308   -0.012349
      8          8           0        2.943332   -0.584948   -0.264691
      9          1           0        6.426462   -0.222807    0.480640
     10          1           0        0.964745   -1.811747    0.270913
 ---------------------------------------------------------------------
 Rotational constants (GHZ):     13.1579650      1.2131245      1.1323750
 Standard basis: STO-3G (5D, 7F)
 There are    40 symmetry adapted cartesian basis functions of A   symmetry.
 There are    39 symmetry adapted basis functions of A   symmetry.
    39 basis functions,   120 primitive gaussians,    40 cartesian basis functions
    31 alpha electrons       31 beta electrons
       nuclear repulsion energy       209.5903201707 Hartrees.
 NAtoms=   10 NActive=   10 NUniq=   10 SFac= 1.00D+00 NAtFMM=   60 NAOKFM=F Big=F
 Integral buffers will be    131072 words long.
 Raffenetti 1 integral format.
 Two-electron integral symmetry is turned on.
 One-electron integrals computed using PRISM.
 NBasis=    39 RedAO= T EigKep=  2.22D-01  NBF=    39
 NBsUse=    39 1.00D-06 EigRej= -1.00D+00 NBFU=    39
 ExpMin= 1.69D-01 ExpMax= 2.63D+03 ExpMxC= 2.63D+03 IAcc=1 IRadAn=         1 AccDes= 0.00D+00
 Harris functional with IExCor=  205 and IRadAn=       1 diagonalized for initial guess.
 HarFok:  IExCor=  205 AccDes= 0.00D+00 IRadAn=         1 IDoV= 1 UseB2=F ITyADJ=14
 ICtDFT=  3500011 ScaDFX=  1.000000  1.000000  1.000000  1.000000
 FoFCou: FMM=F IPFlag=           0 FMFlag=      100000 FMFlg1=           0
         NFxFlg=           0 DoJE=T BraDBF=F KetDBF=T FulRan=T
         wScrn=  0.000000 ICntrl=     500 IOpCl=  0 I1Cent=   200000004 NGrid=           0
         NMat0=    1 NMatS0=      1 NMatT0=    0 NMatD0=    1 NMtDS0=    0 NMtDT0=    0
 Petite list used in FoFCou.
 Keep R1 ints in memory in canonical form, NReq=1167038.
 Requested convergence on RMS density matrix=1.00D-08 within 128 cycles.
 Requested convergence on MAX density matrix=1.00D-06.
 Requested convergence on             energy=1.00D-06.
 No special actions if energy rises.
 EnCoef did   100 forward-backward iterations
 Rare condition: small coef for last iteration:  0.000D+00
 Rare condition: small coef for last iteration:  0.000D+00
 Rare condition: small coef for last iteration:  0.000D+00
 Rare condition: small coef for last iteration:  0.000D+00
 Rare condition: small coef for last iteration:  0.000D+00
 Rare condition: small coef for last iteration:  0.000D+00
 Rare condition: small coef for last iteration:  0.000D+00
 Rare condition: small coef for last iteration:  0.000D+00
 Rare condition: small coef for last iteration:  0.000D+00
 Rare condition: small coef for last iteration:  0.000D+00
 Rare condition: small coef for last iteration:  0.000D+00
 SCF Done:  E(RHF) =  -2695.89152909     A.U. after   71 cycles
            NFock= 71  Conv=0.50D-08     -V/T= 1.9993

 **********************************************************************

            Population analysis using the SCF density.

 **********************************************************************

 Orbital symmetries:
       Occupied  (A) (A) (A) (A) (A) (A) (A) (A) (A) (A) (A) (A)
                 (A) (A) (A) (A) (A) (A) (A) (A) (A) (A) (A) (A)
                 (A) (A) (A) (A) (A) (A) (A)
       Virtual   (A) (A) (A) (A) (A) (A) (A) (A)
 The electronic state is 1-A.
 Alpha  occ. eigenvalues -- -484.09268 -62.82736 -57.37627 -57.37516 -57.37515
 Alpha  occ. eigenvalues --  -20.04122 -10.96562 -10.92958  -8.79186  -6.53962
 Alpha  occ. eigenvalues --   -6.53421  -6.53409  -1.89350  -1.89163  -1.89155
 Alpha  occ. eigenvalues --   -1.88583  -1.88582  -0.97546  -0.82679  -0.63984
 Alpha  occ. eigenvalues --   -0.56160  -0.44483  -0.43218  -0.40198  -0.23300
 Alpha  occ. eigenvalues --   -0.21005  -0.16491  -0.06404  -0.06314  -0.05039
 Alpha  occ. eigenvalues --    0.12801
 Alpha virt. eigenvalues --    0.24546   0.33988   0.52909   0.59727   0.82361
 Alpha virt. eigenvalues --    0.82475   0.83471   0.86722
          Condensed to atoms (all electrons):
               1          2          3          4          5          6
     1  C    4.703968   0.347276   0.379385   0.383624   0.379319  -0.009266
     2  C    0.347276   5.116268  -0.020072  -0.023399  -0.020267   0.244510
     3  H    0.379385  -0.020072   0.579761  -0.021559  -0.020145  -0.002134
     4  H    0.383624  -0.023399  -0.021559   0.603072  -0.022239   0.001304
     5  H    0.379319  -0.020267  -0.020145  -0.022239   0.597022  -0.002277
     6  H   -0.009266   0.244510  -0.002134   0.001304  -0.002277   0.769831
     7  Br  -0.007784   0.070350   0.000216   0.000188  -0.001786  -0.002031
     8  O   -0.012636   0.078336  -0.003203  -0.001005   0.000500  -0.004328
     9  H   -0.000006   0.000017  -0.000128   0.000000   0.000001   0.000003
    10  H   -0.005050   0.226643   0.000361  -0.000093   0.000412  -0.002997
               7          8          9         10
     1  C   -0.007784  -0.012636  -0.000006  -0.005050
     2  C    0.070350   0.078336   0.000017   0.226643
     3  H    0.000216  -0.003203  -0.000128   0.000361
     4  H    0.000188  -0.001005   0.000000  -0.000093
     5  H   -0.001786   0.000500   0.000001   0.000412
     6  H   -0.002031  -0.004328   0.000003  -0.002997
     7  Br  35.542794   0.000016   0.000000  -0.009077
     8  O    0.000016   8.123098  -0.000769  -0.010911
     9  H    0.000000  -0.000769   1.516912  -0.000002
    10  H   -0.009077  -0.010911  -0.000002   0.628678
 Mulliken charges:
               1
     1  C   -0.158829
     2  C   -0.019663
     3  H    0.107519
     4  H    0.080106
     5  H    0.089460
     6  H    0.007385
     7  Br  -0.592887
     8  O   -0.169099
     9  H   -0.516028
    10  H    0.172037
 Sum of Mulliken charges =  -1.00000
 Mulliken charges with hydrogens summed into heavy atoms:
               1
     1  C    0.118256
     2  C    0.159759
     7  Br  -0.592887
     8  O   -0.685127
 Electronic spatial extent (au):  <R**2>=           1061.1989
 Charge=             -1.0000 electrons
 Dipole moment (field-independent basis, Debye):
    X=            -12.0831    Y=              0.3120    Z=              0.1089  Tot=             12.0876
 Quadrupole moment (field-independent basis, Debye-Ang):
   XX=           -149.3313   YY=            -32.2955   ZZ=            -37.2416
   XY=              3.7513   XZ=             -5.7318   YZ=             -1.1664
 Traceless Quadrupole moment (field-independent basis, Debye-Ang):
   XX=            -76.3751   YY=             40.6606   ZZ=             35.7145
   XY=              3.7513   XZ=             -5.7318   YZ=             -1.1664
 Octapole moment (field-independent basis, Debye-Ang**2):
  XXX=           -704.5298  YYY=            -10.1437  ZZZ=             -2.6422  XYY=             -9.4085
  XXY=             23.5733  XXZ=            -45.2131  XZZ=            -18.1299  YZZ=             -0.8032
  YYZ=              1.3073  XYZ=             -0.3037
 Hexadecapole moment (field-independent basis, Debye-Ang**3):
 XXXX=          -5253.3459 YYYY=           -113.7745 ZZZZ=            -46.8289 XXXY=            141.4229
 XXXZ=           -311.7774 YYYX=            -11.9002 YYYZ=             -1.8221 ZZZX=            -10.0579
 ZZZY=             -0.6766 XXYY=           -181.1078 XXZZ=           -198.0618 YYZZ=            -27.7436
 XXYZ=              8.5764 YYXZ=             -1.1326 ZZXY=              0.3497
 N-N= 2.095903201707D+02 E-N=-6.901261539163D+03  KE= 2.697840543698D+03
 1\1\GINC-LEGION\SP\RHF\STO-3G\C2H6Br1O1(1-)\HIMANSHU\17-Feb-2025\0\\# 
 hf/sto-3g geom=connectivity\\Title Card Required\\-1,1\C,0,0.24392801,
 -1.30655672,0.26429149\C,0,-0.73831029,-0.43970609,1.09467795\H,0,-0.1
 2766911,-1.40504853,-0.75626253\H,0,1.22328125,-0.84157857,0.22661257\
 H,0,0.34001477,-2.29334856,0.70052549\H,0,-1.97877525,-0.89086103,1.10
 496892\Br,0,-0.18067205,-1.34058218,3.53071762\O,0,-0.9255013,0.430610
 3,-0.53845062\H,0,-1.61851894,0.63990909,-4.04484196\H,0,-1.92154562,0
 .30398503,1.62916919\\Version=AM64L-G09RevD.01\State=1-A\HF=-2695.8915
 291\RMSD=5.034e-09\Dipole=0.6365403,-1.4349431,4.4890845\Quadrupole=26
 .7740238,21.5112382,-48.2852621,2.4121908,-15.1944347,21.3563267\PG=C0
 1 [X(C2H6Br1O1)]\\@


 THERE ONCE WAS A GIRL NAMED IRENE,
 WHO LIVED ON DISTILLED KEROSENE,
      BUT SHE STARTED ABSORBIN'
      A NEW HYDROCARBON,
 AND SINCE THEN HAS NEVER BENZENE.
 Job cpu time:       0 days  0 hours  0 minutes  1.4 seconds.
 File lengths (MBytes):  RWF=      5 Int=      0 D2E=      0 Chk=      2 Scr=      1
 Normal termination of Gaussian 09 at Mon Feb 17 23:10:33 2025.
