 Entering Gaussian System, Link 0=g09
 Input=/home/himanshu/git/molecular-modeling/a1/q2/butane.com
 Output=/home/himanshu/git/molecular-modeling/a1/q2/butane.log
 Initial command:
 /home/himanshu/work/Gview_and_Gaussian/g09/l1.exe "/home/himanshu/work/Gview_and_Gaussian/g09/scratch/Gau-125119.inp" -scrdir="/home/himanshu/work/Gview_and_Gaussian/g09/scratch/"
 Entering Link 1 = /home/himanshu/work/Gview_and_Gaussian/g09/l1.exe PID=    125121.
  
 Copyright (c) 1988,1990,1992,1993,1995,1998,2003,2009,2013,
            Gaussian, Inc.  All Rights Reserved.
  
 This is part of the Gaussian(R) 09 program.  It is based on
 the Gaussian(R) 03 system (copyright 2003, Gaussian, Inc.),
 the Gaussian(R) 98 system (copyright 1998, Gaussian, Inc.),
 the Gaussian(R) 94 system (copyright 1995, Gaussian, Inc.),
 the Gaussian 92(TM) system (copyright 1992, Gaussian, Inc.),
 the Gaussian 90(TM) system (copyright 1990, Gaussian, Inc.),
 the Gaussian 88(TM) system (copyright 1988, Gaussian, Inc.),
 the Gaussian 86(TM) system (copyright 1986, Carnegie Mellon
 University), and the Gaussian 82(TM) system (copyright 1983,
 Carnegie Mellon University). Gaussian is a federally registered
 trademark of Gaussian, Inc.
  
 This software contains proprietary and confidential information,
 including trade secrets, belonging to Gaussian, Inc.
  
 This software is provided under written license and may be
 used, copied, transmitted, or stored only in accord with that
 written license.
  
 The following legend is applicable only to US Government
 contracts under FAR:
  
                    RESTRICTED RIGHTS LEGEND
  
 Use, reproduction and disclosure by the US Government is
 subject to restrictions as set forth in subparagraphs (a)
 and (c) of the Commercial Computer Software - Restricted
 Rights clause in FAR 52.227-19.
  
 Gaussian, Inc.
 340 Quinnipiac St., Bldg. 40, Wallingford CT 06492
  
  
 ---------------------------------------------------------------
 Warning -- This program may not be used in any manner that
 competes with the business of Gaussian, Inc. or will provide
 assistance to any competitor of Gaussian, Inc.  The licensee
 of this program is prohibited from giving any competitor of
 Gaussian, Inc. access to this program.  By using this program,
 the user acknowledges that Gaussian, Inc. is engaged in the
 business of creating and licensing software in the field of
 computational chemistry and represents and warrants to the
 licensee that it is not a competitor of Gaussian, Inc. and that
 it will not use this program in any manner prohibited above.
 ---------------------------------------------------------------
  

 Cite this work as:
 Gaussian 09, Revision D.01,
 M. J. Frisch, G. W. Trucks, H. B. Schlegel, G. E. Scuseria, 
 M. A. Robb, J. R. Cheeseman, G. Scalmani, V. Barone, B. Mennucci, 
 G. A. Petersson, H. Nakatsuji, M. Caricato, X. Li, H. P. Hratchian, 
 A. F. Izmaylov, J. Bloino, G. Zheng, J. L. Sonnenberg, M. Hada, 
 M. Ehara, K. Toyota, R. Fukuda, J. Hasegawa, M. Ishida, T. Nakajima, 
 Y. Honda, O. Kitao, H. Nakai, T. Vreven, J. A. Montgomery, Jr., 
 J. E. Peralta, F. Ogliaro, M. Bearpark, J. J. Heyd, E. Brothers, 
 K. N. Kudin, V. N. Staroverov, T. Keith, R. Kobayashi, J. Normand, 
 K. Raghavachari, A. Rendell, J. C. Burant, S. S. Iyengar, J. Tomasi, 
 M. Cossi, N. Rega, J. M. Millam, M. Klene, J. E. Knox, J. B. Cross, 
 V. Bakken, C. Adamo, J. Jaramillo, R. Gomperts, R. E. Stratmann, 
 O. Yazyev, A. J. Austin, R. Cammi, C. Pomelli, J. W. Ochterski, 
 R. L. Martin, K. Morokuma, V. G. Zakrzewski, G. A. Voth, 
 P. Salvador, J. J. Dannenberg, S. Dapprich, A. D. Daniels, 
 O. Farkas, J. B. Foresman, J. V. Ortiz, J. Cioslowski, 
 and D. J. Fox, Gaussian, Inc., Wallingford CT, 2013.
 
 ******************************************
 Gaussian 09:  AM64L-G09RevD.01 24-Apr-2013
                18-Feb-2025 
 ******************************************
 %nprocshared=4
 Will use up to    4 processors via shared memory.
 %chk=butane.chk
 ----------------------------------------------
 # opt=modredundant hf/sto-3g geom=connectivity
 ----------------------------------------------
 1/18=120,19=15,38=1,57=2/1,3;
 2/9=110,12=2,17=6,18=5,40=1/2;
 3/6=3,11=9,16=1,25=1,30=1,71=1/1,2,3;
 4//1;
 5/5=2,38=5/2;
 6/7=2,8=2,9=2,10=2,28=1/1;
 7//1,2,3,16;
 1/18=20,19=15/3(2);
 2/9=110/2;
 99//99;
 2/9=110/2;
 3/6=3,11=9,16=1,25=1,30=1,71=1/1,2,3;
 4/5=5,16=3,69=1/1;
 5/5=2,38=5/2;
 7//1,2,3,16;
 1/18=20,19=15/3(-5);
 2/9=110/2;
 6/7=2,8=2,9=2,10=2,19=2,28=1/1;
 99/9=1/99;
 -------------------
 Title Card Required
 -------------------
 Symbolic Z-matrix:
 Charge =  0 Multiplicity = 1
 C                    -1.14823  -0.17223   0. 
 C                     0.35849  -0.17223   0. 
 H                    -1.53684   0.87466   0. 
 H                    -1.54274  -0.69487  -0.90484 
 H                    -1.54266  -0.69473   0.90498 
 C                     0.91608  -1.58008   0.00018 
 H                     0.73569   0.3778   -0.90244 
 H                     0.73209   0.35835   0.91549 
 C                     2.42282  -1.58006   0.00011 
 H                     0.53891  -2.13011   0.9026 
 H                     0.53884  -2.13031  -0.9021 
 H                     2.81162  -2.62685   0.00026 
 H                     2.81713  -1.05743  -0.90484 
 H                     2.81721  -1.05714   0.90487 
 
 The following ModRedundant input section has been read:
 D       1       2       6       9 S  36 10.000                                
 

 GradGradGradGradGradGradGradGradGradGradGradGradGradGradGradGradGradGrad
 Berny optimization.
 Initialization pass.
                           ----------------------------
                           !    Initial Parameters    !
                           ! (Angstroms and Degrees)  !
 --------------------------                            --------------------------
 ! Name  Definition              Value          Derivative Info.                !
 --------------------------------------------------------------------------------
 ! R1    R(1,2)                  1.5067         estimate D2E/DX2                !
 ! R2    R(1,3)                  1.1167         estimate D2E/DX2                !
 ! R3    R(1,4)                  1.1169         estimate D2E/DX2                !
 ! R4    R(1,5)                  1.1169         estimate D2E/DX2                !
 ! R5    R(2,6)                  1.5142         estimate D2E/DX2                !
 ! R6    R(2,7)                  1.1221         estimate D2E/DX2                !
 ! R7    R(2,8)                  1.1221         estimate D2E/DX2                !
 ! R8    R(6,9)                  1.5067         estimate D2E/DX2                !
 ! R9    R(6,10)                 1.1221         estimate D2E/DX2                !
 ! R10   R(6,11)                 1.1221         estimate D2E/DX2                !
 ! R11   R(9,12)                 1.1167         estimate D2E/DX2                !
 ! R12   R(9,13)                 1.1169         estimate D2E/DX2                !
 ! R13   R(9,14)                 1.1169         estimate D2E/DX2                !
 ! A1    A(2,1,3)              110.3651         estimate D2E/DX2                !
 ! A2    A(2,1,4)              110.684          estimate D2E/DX2                !
 ! A3    A(2,1,5)              110.6793         estimate D2E/DX2                !
 ! A4    A(3,1,4)              108.4063         estimate D2E/DX2                !
 ! A5    A(3,1,5)              108.4007         estimate D2E/DX2                !
 ! A6    A(4,1,5)              108.2253         estimate D2E/DX2                !
 ! A7    A(1,2,6)              111.6065         estimate D2E/DX2                !
 ! A8    A(1,2,7)              109.6417         estimate D2E/DX2                !
 ! A9    A(1,2,8)              109.4465         estimate D2E/DX2                !
 ! A10   A(6,2,7)              109.3929         estimate D2E/DX2                !
 ! A11   A(6,2,8)              108.4766         estimate D2E/DX2                !
 ! A12   A(7,2,8)              108.2056         estimate D2E/DX2                !
 ! A13   A(2,6,9)              111.6054         estimate D2E/DX2                !
 ! A14   A(2,6,10)             109.3931         estimate D2E/DX2                !
 ! A15   A(2,6,11)             109.3904         estimate D2E/DX2                !
 ! A16   A(9,6,10)             109.6438         estimate D2E/DX2                !
 ! A17   A(9,6,11)             109.643          estimate D2E/DX2                !
 ! A18   A(10,6,11)            107.0555         estimate D2E/DX2                !
 ! A19   A(6,9,12)             110.375          estimate D2E/DX2                !
 ! A20   A(6,9,13)             110.6752         estimate D2E/DX2                !
 ! A21   A(6,9,14)             110.6753         estimate D2E/DX2                !
 ! A22   A(12,9,13)            108.4103         estimate D2E/DX2                !
 ! A23   A(12,9,14)            108.4105         estimate D2E/DX2                !
 ! A24   A(13,9,14)            108.2146         estimate D2E/DX2                !
 ! D1    D(3,1,2,6)            179.9928         estimate D2E/DX2                !
 ! D2    D(3,1,2,7)            -58.6375         estimate D2E/DX2                !
 ! D3    D(3,1,2,8)             59.905          estimate D2E/DX2                !
 ! D4    D(4,1,2,6)            -59.9967         estimate D2E/DX2                !
 ! D5    D(4,1,2,7)             61.373          estimate D2E/DX2                !
 ! D6    D(4,1,2,8)            179.9156         estimate D2E/DX2                !
 ! D7    D(5,1,2,6)             59.9922         estimate D2E/DX2                !
 ! D8    D(5,1,2,7)           -178.6381         estimate D2E/DX2                !
 ! D9    D(5,1,2,8)            -60.0955         estimate D2E/DX2                !
 ! D10   D(1,2,6,9)            179.9973         Scan                            !
 ! D11   D(1,2,6,10)           -58.4866         estimate D2E/DX2                !
 ! D12   D(1,2,6,11)            58.4842         estimate D2E/DX2                !
 ! D13   D(7,2,6,9)             58.4834         estimate D2E/DX2                !
 ! D14   D(7,2,6,10)           179.9995         estimate D2E/DX2                !
 ! D15   D(7,2,6,11)           -63.0297         estimate D2E/DX2                !
 ! D16   D(8,2,6,9)            -59.3463         estimate D2E/DX2                !
 ! D17   D(8,2,6,10)            62.1698         estimate D2E/DX2                !
 ! D18   D(8,2,6,11)           179.1406         estimate D2E/DX2                !
 ! D19   D(2,6,9,12)           179.9991         estimate D2E/DX2                !
 ! D20   D(2,6,9,13)           -59.9846         estimate D2E/DX2                !
 ! D21   D(2,6,9,14)            59.9826         estimate D2E/DX2                !
 ! D22   D(10,6,9,12)           58.6285         estimate D2E/DX2                !
 ! D23   D(10,6,9,13)          178.6448         estimate D2E/DX2                !
 ! D24   D(10,6,9,14)          -61.3881         estimate D2E/DX2                !
 ! D25   D(11,6,9,12)          -58.6342         estimate D2E/DX2                !
 ! D26   D(11,6,9,13)           61.3821         estimate D2E/DX2                !
 ! D27   D(11,6,9,14)         -178.6508         estimate D2E/DX2                !
 --------------------------------------------------------------------------------
 Trust Radius=3.00D-01 FncErr=1.00D-07 GrdErr=1.00D-07
 Number of optimizations in scan=  37
 Number of steps in this run=     74 maximum allowed number of steps=    100.
 GradGradGradGradGradGradGradGradGradGradGradGradGradGradGradGradGradGrad

                          Input orientation:                          
 ---------------------------------------------------------------------
 Center     Atomic      Atomic             Coordinates (Angstroms)
 Number     Number       Type             X           Y           Z
 ---------------------------------------------------------------------
      1          6           0       -1.148225   -0.172234    0.000000
      2          6           0        0.358493   -0.172234    0.000000
      3          1           0       -1.536836    0.874659    0.000000
      4          1           0       -1.542738   -0.694867   -0.904842
      5          1           0       -1.542660   -0.694733    0.904976
      6          6           0        0.916084   -1.580085    0.000178
      7          1           0        0.735687    0.377804   -0.902436
      8          1           0        0.732086    0.358351    0.915492
      9          6           0        2.422818   -1.580057    0.000113
     10          1           0        0.538909   -2.130109    0.902596
     11          1           0        0.538845   -2.130310   -0.902097
     12          1           0        2.811620   -2.626853    0.000262
     13          1           0        2.817129   -1.057431   -0.904843
     14          1           0        2.817209   -1.057140    0.904866
 ---------------------------------------------------------------------
                    Distance matrix (angstroms):
                    1          2          3          4          5
     1  C    0.000000
     2  C    1.506718   0.000000
     3  H    1.116693   2.165238   0.000000
     4  H    1.116926   2.169462   1.811680   0.000000
     5  H    1.116945   2.169417   1.811631   1.809818   0.000000
     6  C    2.498683   1.514250   3.470243   2.765588   2.765489
     7  H    2.160106   1.122144   2.495119   2.518303   3.099668
     8  H    2.157595   1.122149   2.500541   3.098017   2.506704
     9  C    3.838530   2.498680   4.658808   4.162708   4.162642
    10  H    2.737586   2.163447   3.761918   3.108055   2.528486
    11  H    2.737525   2.163416   3.761924   2.528536   3.107902
    12  H    4.658919   3.470301   5.582979   4.848940   4.848850
    13  H    4.162493   2.765358   4.848580   4.374916   4.734422
    14  H    4.162512   2.765344   4.848540   4.734493   4.374905
                    6          7          8          9         10
     6  C    0.000000
     7  H    2.163466   0.000000
     8  H    2.151555   1.818036   0.000000
     9  C    1.506734   2.737558   2.730187   0.000000
    10  H    1.122117   3.096206   2.495980   2.160126   0.000000
    11  H    1.122122   2.515826   3.087783   2.160119   1.804693
    12  H    2.165359   3.761958   3.751473   1.116669   2.495231
    13  H    2.169378   2.528301   3.108933   1.116944   3.099639
    14  H    2.169380   3.107755   2.520211   1.116944   2.518317
                   11         12         13         14
    11  H    0.000000
    12  H    2.495258   0.000000
    13  H    2.518264   1.811720   0.000000
    14  H    3.099637   1.811723   1.809709   0.000000
 Stoichiometry    C4H10
 Framework group  C1[X(C4H10)]
 Deg. of freedom    36
 Full point group                 C1      NOp   1
 Largest Abelian subgroup         C1      NOp   1
 Largest concise Abelian subgroup C1      NOp   1
                         Standard orientation:                         
 ---------------------------------------------------------------------
 Center     Atomic      Atomic             Coordinates (Angstroms)
 Number     Number       Type             X           Y           Z
 ---------------------------------------------------------------------
      1          6           0        1.915468    0.122324   -0.000491
      2          6           0        0.552003   -0.518897   -0.000184
      3          1           0        2.712662   -0.659651   -0.000073
      4          1           0        2.050069    0.762693   -0.905662
      5          1           0        2.050023    0.763474    0.904156
      6          6           0       -0.551719    0.517804   -0.000562
      7          1           0        0.444770   -1.177630   -0.902282
      8          1           0        0.439717   -1.157554    0.915636
      9          6           0       -1.915186   -0.123449   -0.000320
     10          1           0       -0.444497    1.176516    0.901518
     11          1           0       -0.444492    1.175792   -0.903175
     12          1           0       -2.712512    0.658357   -0.000589
     13          1           0       -2.049575   -0.764662   -0.904947
     14          1           0       -2.049556   -0.764024    0.904762
 ---------------------------------------------------------------------
 Rotational constants (GHZ):     22.7871263      3.7567483      3.5220777
 Standard basis: STO-3G (5D, 7F)
 There are    30 symmetry adapted cartesian basis functions of A   symmetry.
 There are    30 symmetry adapted basis functions of A   symmetry.
    30 basis functions,    90 primitive gaussians,    30 cartesian basis functions
    17 alpha electrons       17 beta electrons
       nuclear repulsion energy       131.0328084510 Hartrees.
 NAtoms=   14 NActive=   14 NUniq=   14 SFac= 1.00D+00 NAtFMM=   60 NAOKFM=F Big=F
 Integral buffers will be    131072 words long.
 Raffenetti 1 integral format.
 Two-electron integral symmetry is turned on.
 One-electron integrals computed using PRISM.
 NBasis=    30 RedAO= T EigKep=  2.02D-01  NBF=    30
 NBsUse=    30 1.00D-06 EigRej= -1.00D+00 NBFU=    30
 ExpMin= 1.69D-01 ExpMax= 7.16D+01 ExpMxC= 7.16D+01 IAcc=1 IRadAn=         1 AccDes= 0.00D+00
 Harris functional with IExCor=  205 and IRadAn=       1 diagonalized for initial guess.
 HarFok:  IExCor=  205 AccDes= 0.00D+00 IRadAn=         1 IDoV= 1 UseB2=F ITyADJ=14
 ICtDFT=  3500011 ScaDFX=  1.000000  1.000000  1.000000  1.000000
 FoFCou: FMM=F IPFlag=           0 FMFlag=      100000 FMFlg1=           0
         NFxFlg=           0 DoJE=T BraDBF=F KetDBF=T FulRan=T
         wScrn=  0.000000 ICntrl=     500 IOpCl=  0 I1Cent=   200000004 NGrid=           0
         NMat0=    1 NMatS0=      1 NMatT0=    0 NMatD0=    1 NMtDS0=    0 NMtDT0=    0
 Petite list used in FoFCou.
 Keep R1 ints in memory in canonical form, NReq=952435.
 Requested convergence on RMS density matrix=1.00D-08 within 128 cycles.
 Requested convergence on MAX density matrix=1.00D-06.
 Requested convergence on             energy=1.00D-06.
 No special actions if energy rises.
 SCF Done:  E(RHF) =  -155.455514038     A.U. after    8 cycles
            NFock=  8  Conv=0.68D-08     -V/T= 2.0094

 **********************************************************************

            Population analysis using the SCF density.

 **********************************************************************

 Orbital symmetries:
       Occupied  (A) (A) (A) (A) (A) (A) (A) (A) (A) (A) (A) (A)
                 (A) (A) (A) (A) (A)
       Virtual   (A) (A) (A) (A) (A) (A) (A) (A) (A) (A) (A) (A)
                 (A)
 The electronic state is 1-A.
 Alpha  occ. eigenvalues --  -11.03967 -11.03914 -11.03348 -11.03345  -1.03467
 Alpha  occ. eigenvalues --   -0.93950  -0.81192  -0.74255  -0.60827  -0.55200
 Alpha  occ. eigenvalues --   -0.53940  -0.53237  -0.47737  -0.45435  -0.43032
 Alpha  occ. eigenvalues --   -0.41961  -0.41151
 Alpha virt. eigenvalues --    0.57966   0.59397   0.65657   0.66024   0.67104
 Alpha virt. eigenvalues --    0.70881   0.71515   0.74154   0.75486   0.75925
 Alpha virt. eigenvalues --    0.79153   0.79928   0.81125
          Condensed to atoms (all electrons):
               1          2          3          4          5          6
     1  C    4.727513   0.368057   0.378195   0.378113   0.378203  -0.025328
     2  C    0.368057   4.730662  -0.021003  -0.021441  -0.021396   0.367217
     3  H    0.378195  -0.021003   0.636601  -0.020309  -0.020304   0.001380
     4  H    0.378113  -0.021441  -0.020309   0.637395  -0.020666  -0.002478
     5  H    0.378203  -0.021396  -0.020304  -0.020666   0.637286  -0.002418
     6  C   -0.025328   0.367217   0.001380  -0.002478  -0.002418   4.731782
     7  H   -0.022548   0.377611  -0.002326  -0.002269   0.001866  -0.022566
     8  H   -0.022588   0.377305  -0.002262   0.001880  -0.002408  -0.023273
     9  C    0.000870  -0.025453  -0.000019   0.000011   0.000012   0.368234
    10  H   -0.002413  -0.022507   0.000013  -0.000001   0.000372   0.377274
    11  H   -0.002442  -0.022614   0.000013   0.000391  -0.000003   0.377029
    12  H   -0.000019   0.001375   0.000000   0.000000   0.000000  -0.020971
    13  H    0.000011  -0.002436   0.000000   0.000002  -0.000001  -0.021427
    14  H    0.000011  -0.002432   0.000000  -0.000001   0.000002  -0.021439
               7          8          9         10         11         12
     1  C   -0.022548  -0.022588   0.000870  -0.002413  -0.002442  -0.000019
     2  C    0.377611   0.377305  -0.025453  -0.022507  -0.022614   0.001375
     3  H   -0.002326  -0.002262  -0.000019   0.000013   0.000013   0.000000
     4  H   -0.002269   0.001880   0.000011  -0.000001   0.000391   0.000000
     5  H    0.001866  -0.002408   0.000012   0.000372  -0.000003   0.000000
     6  C   -0.022566  -0.023273   0.368234   0.377274   0.377029  -0.020971
     7  H    0.648320  -0.021072  -0.002438   0.001848  -0.002265   0.000014
     8  H   -0.021072   0.650027  -0.002480  -0.002439   0.001890   0.000014
     9  C   -0.002438  -0.002480   4.727379  -0.022450  -0.022451   0.378219
    10  H    0.001848  -0.002439  -0.022450   0.650192  -0.021871  -0.002298
    11  H   -0.002265   0.001890  -0.022451  -0.021871   0.650670  -0.002305
    12  H    0.000014   0.000014   0.378219  -0.002298  -0.002305   0.636501
    13  H    0.000372  -0.000001   0.378146   0.001873  -0.002326  -0.020295
    14  H   -0.000001   0.000377   0.378131  -0.002329   0.001874  -0.020299
              13         14
     1  C    0.000011   0.000011
     2  C   -0.002436  -0.002432
     3  H    0.000000   0.000000
     4  H    0.000002  -0.000001
     5  H   -0.000001   0.000002
     6  C   -0.021427  -0.021439
     7  H    0.000372  -0.000001
     8  H   -0.000001   0.000377
     9  C    0.378146   0.378131
    10  H    0.001873  -0.002329
    11  H   -0.002326   0.001874
    12  H   -0.020295  -0.020299
    13  H    0.637353  -0.020684
    14  H   -0.020684   0.637433
 Mulliken charges:
               1
     1  C   -0.155635
     2  C   -0.082945
     3  H    0.050020
     4  H    0.049372
     5  H    0.049453
     6  C   -0.083016
     7  H    0.045453
     8  H    0.045029
     9  C   -0.155709
    10  H    0.044736
    11  H    0.044410
    12  H    0.050065
    13  H    0.049413
    14  H    0.049356
 Sum of Mulliken charges =   0.00000
 Mulliken charges with hydrogens summed into heavy atoms:
               1
     1  C   -0.006790
     2  C    0.007537
     6  C    0.006129
     9  C   -0.006876
 Electronic spatial extent (au):  <R**2>=            412.4265
 Charge=              0.0000 electrons
 Dipole moment (field-independent basis, Debye):
    X=              0.0014    Y=             -0.0006    Z=              0.0022  Tot=              0.0027
 Quadrupole moment (field-independent basis, Debye-Ang):
   XX=            -27.7354   YY=            -26.8546   ZZ=            -26.3379
   XY=             -0.1807   XZ=             -0.0035   YZ=              0.0119
 Traceless Quadrupole moment (field-independent basis, Debye-Ang):
   XX=             -0.7594   YY=              0.1214   ZZ=              0.6380
   XY=             -0.1807   XZ=             -0.0035   YZ=              0.0119
 Octapole moment (field-independent basis, Debye-Ang**2):
  XXX=             -0.0033  YYY=              0.0393  ZZZ=              0.0158  XYY=             -0.0091
  XXY=              0.0037  XXZ=              0.0002  XZZ=              0.0095  YZZ=             -0.0190
  YYZ=             -0.0183  XYZ=              0.0068
 Hexadecapole moment (field-independent basis, Debye-Ang**3):
 XXXX=           -409.5847 YYYY=            -79.5670 ZZZZ=            -50.2830 XXXY=             -5.9268
 XXXZ=              0.0076 YYYX=             -0.4737 YYYZ=              0.0558 ZZZX=             -0.0014
 ZZZY=             -0.0024 XXYY=            -78.4800 XXZZ=            -75.3954 YYZZ=            -19.3161
 XXYZ=              0.0090 YYXZ=             -0.0137 ZZXY=              1.8612
 N-N= 1.310328084510D+02 E-N=-6.227921068927D+02  KE= 1.540145997415D+02
 Calling FoFJK, ICntrl=      2127 FMM=F ISym2X=0 I1Cent= 0 IOpClX= 0 NMat=1 NMatS=1 NMatT=0.
 ***** Axes restored to original set *****
 -------------------------------------------------------------------
 Center     Atomic                   Forces (Hartrees/Bohr)
 Number     Number              X              Y              Z
 -------------------------------------------------------------------
      1        6          -0.050728812    0.004824901   -0.000263959
      2        6           0.029077463    0.039635986    0.002431320
      3        1           0.005982529   -0.024762162    0.000009889
      4        1           0.007497755    0.012432450    0.021201694
      5        1           0.007578903    0.012385436   -0.021281496
      6        6          -0.030198256   -0.043561347   -0.001343334
      7        1          -0.008057879   -0.011784391    0.024131973
      8        1          -0.008275656   -0.009698925   -0.024885364
      9        6           0.050543855   -0.004833742    0.000004112
     10        1           0.008724926    0.012872695   -0.022832253
     11        1           0.008898459    0.012549692    0.022814229
     12        1          -0.005991900    0.024770048    0.000002762
     13        1          -0.007527717   -0.012416786    0.021238858
     14        1          -0.007523669   -0.012413855   -0.021228431
 -------------------------------------------------------------------
 Cartesian Forces:  Max     0.050728812 RMS     0.020378908

 GradGradGradGradGradGradGradGradGradGradGradGradGradGradGradGradGradGrad
 Berny optimization.
 FormGI is forming the generalized inverse of G from B-inverse, IUseBI=4.
 Internal  Forces:  Max     0.029669625 RMS     0.012321301
 Search for a local minimum.
 Step number   1 out of a maximum of   74 on scan point     1 out of    37
 All quantities printed in internal units (Hartrees-Bohrs-Radians)
 Mixed Optimization -- RFO/linear search
 Second derivative matrix not updated -- first step.
 ITU=  0
     Eigenvalues ---    0.00677   0.00677   0.01808   0.03873   0.05058
     Eigenvalues ---    0.05093   0.05795   0.05796   0.05820   0.05821
     Eigenvalues ---    0.08238   0.08282   0.10612   0.12117   0.16000
     Eigenvalues ---    0.16000   0.16000   0.16000   0.16000   0.16000
     Eigenvalues ---    0.21903   0.21951   0.30927   0.31347   0.31347
     Eigenvalues ---    0.31350   0.31350   0.31681   0.31683   0.31876
     Eigenvalues ---    0.31876   0.31876   0.31878   0.31902   0.31904
     Eigenvalues --- 1000.000001000.000001000.000001000.000001000.00000
     Eigenvalues --- 1000.000001000.000001000.000001000.000001000.00000
     Eigenvalues --- 1000.000001000.000001000.000001000.000001000.00000
     Eigenvalues --- 1000.000001000.000001000.000001000.000001000.00000
     Eigenvalues --- 1000.000001000.000001000.000001000.000001000.00000
     Eigenvalues --- 1000.000001000.000001000.000001000.00000
 RFO step:  Lambda=-2.88225748D-02 EMin= 6.76869506D-03
 Linear search not attempted -- first point.
 Iteration  1 RMS(Cart)=  0.06154404 RMS(Int)=  0.00039831
 Iteration  2 RMS(Cart)=  0.00045742 RMS(Int)=  0.00007627
 Iteration  3 RMS(Cart)=  0.00000023 RMS(Int)=  0.00007627
 Iteration  1 RMS(Cart)=  0.00000988 RMS(Int)=  0.00000700
 Iteration  2 RMS(Cart)=  0.00000650 RMS(Int)=  0.00000775
 Iteration  3 RMS(Cart)=  0.00000428 RMS(Int)=  0.00000891
 Iteration  4 RMS(Cart)=  0.00000282 RMS(Int)=  0.00000986
 Iteration  5 RMS(Cart)=  0.00000186 RMS(Int)=  0.00001055
 Iteration  6 RMS(Cart)=  0.00000122 RMS(Int)=  0.00001103
 Iteration  7 RMS(Cart)=  0.00000080 RMS(Int)=  0.00001135
 Variable       Old X    -DE/DX   Delta X   Delta X   Delta X     New X
                                 (Linear)    (Quad)   (Total)
    R1        2.84728   0.02967   0.00000   0.08584   0.08584   2.93312
    R2        2.11024  -0.02530   0.00000  -0.07272  -0.07272   2.03752
    R3        2.11069  -0.02564   0.00000  -0.07377  -0.07377   2.03692
    R4        2.11072  -0.02571   0.00000  -0.07398  -0.07398   2.03674
    R5        2.86152   0.02765   0.00000   0.08177   0.08177   2.94329
    R6        2.12055  -0.02789   0.00000  -0.08148  -0.08148   2.03906
    R7        2.12055  -0.02764   0.00000  -0.08076  -0.08076   2.03979
    R8        2.84731   0.02950   0.00000   0.08535   0.08535   2.93267
    R9        2.12049  -0.02760   0.00000  -0.08064  -0.08064   2.03985
   R10        2.12050  -0.02749   0.00000  -0.08030  -0.08030   2.04020
   R11        2.11020  -0.02531   0.00000  -0.07275  -0.07275   2.03745
   R12        2.11072  -0.02568   0.00000  -0.07387  -0.07387   2.03685
   R13        2.11072  -0.02566   0.00000  -0.07384  -0.07384   2.03688
    A1        1.92623   0.00374   0.00000   0.02046   0.02037   1.94660
    A2        1.93180   0.00136   0.00000   0.00691   0.00686   1.93866
    A3        1.93172   0.00126   0.00000   0.00635   0.00630   1.93802
    A4        1.89205  -0.00253   0.00000  -0.01277  -0.01286   1.87919
    A5        1.89195  -0.00248   0.00000  -0.01251  -0.01260   1.87935
    A6        1.88889  -0.00162   0.00000  -0.00979  -0.00980   1.87909
    A7        1.94790   0.00646   0.00000   0.03216   0.03197   1.97987
    A8        1.91361  -0.00152   0.00000  -0.00520  -0.00524   1.90836
    A9        1.91020  -0.00195   0.00000  -0.00539  -0.00580   1.90440
   A10        1.90927  -0.00192   0.00000  -0.00652  -0.00653   1.90274
   A11        1.89327  -0.00033   0.00000   0.00769   0.00754   1.90082
   A12        1.88854  -0.00093   0.00000  -0.02436  -0.02443   1.86411
   A13        1.94788   0.00740   0.00000   0.03322   0.03317   1.98105
   A14        1.90927  -0.00220   0.00000  -0.00784  -0.00787   1.90140
   A15        1.90922  -0.00184   0.00000  -0.00433  -0.00441   1.90481
   A16        1.91365  -0.00199   0.00000  -0.00711  -0.00717   1.90648
   A17        1.91363  -0.00219   0.00000  -0.00654  -0.00662   1.90701
   A18        1.86847   0.00052   0.00000  -0.00921  -0.00931   1.85916
   A19        1.92641   0.00374   0.00000   0.02041   0.02031   1.94672
   A20        1.93165   0.00132   0.00000   0.00669   0.00664   1.93829
   A21        1.93165   0.00132   0.00000   0.00670   0.00665   1.93830
   A22        1.89212  -0.00251   0.00000  -0.01267  -0.01276   1.87936
   A23        1.89212  -0.00251   0.00000  -0.01269  -0.01278   1.87934
   A24        1.88870  -0.00162   0.00000  -0.00979  -0.00980   1.87890
    D1        3.14147   0.00052   0.00000   0.00516   0.00513  -3.13659
    D2       -1.02342   0.00131   0.00000   0.01460   0.01458  -1.00884
    D3        1.04554  -0.00189   0.00000  -0.02139  -0.02135   1.02419
    D4       -1.04714   0.00068   0.00000   0.00698   0.00697  -1.04017
    D5        1.07116   0.00147   0.00000   0.01642   0.01642   1.08758
    D6        3.14012  -0.00173   0.00000  -0.01957  -0.01951   3.12061
    D7        1.04706   0.00036   0.00000   0.00338   0.00333   1.05040
    D8       -3.11782   0.00116   0.00000   0.01282   0.01278  -3.10504
    D9       -1.04886  -0.00205   0.00000  -0.02317  -0.02315  -1.07201
   D10        3.14155  -0.00011   0.00000   0.00000   0.00000   3.14154
   D11       -1.02078   0.00073   0.00000   0.00749   0.00742  -1.01336
   D12        1.02074  -0.00095   0.00000  -0.01060  -0.01066   1.01008
   D13        1.02073  -0.00112   0.00000  -0.01010  -0.01007   1.01066
   D14        3.14158  -0.00027   0.00000  -0.00261  -0.00264   3.13894
   D15       -1.10008  -0.00196   0.00000  -0.02070  -0.02072  -1.12080
   D16       -1.03579   0.00127   0.00000   0.01841   0.01856  -1.01723
   D17        1.08507   0.00211   0.00000   0.02590   0.02598   1.11105
   D18        3.12659   0.00043   0.00000   0.00781   0.00790   3.13450
   D19        3.14158  -0.00011   0.00000  -0.00169  -0.00170   3.13988
   D20       -1.04693   0.00004   0.00000   0.00009   0.00009  -1.04683
   D21        1.04689  -0.00026   0.00000  -0.00343  -0.00347   1.04343
   D22        1.02326  -0.00086   0.00000  -0.00886  -0.00884   1.01442
   D23        3.11794  -0.00070   0.00000  -0.00708  -0.00704   3.11090
   D24       -1.07142  -0.00101   0.00000  -0.01060  -0.01060  -1.08203
   D25       -1.02336   0.00096   0.00000   0.01030   0.01029  -1.01307
   D26        1.07132   0.00111   0.00000   0.01207   0.01208   1.08340
   D27       -3.11804   0.00080   0.00000   0.00855   0.00852  -3.10952
         Item               Value     Threshold  Converged?
 Maximum Force            0.029670     0.000450     NO 
 RMS     Force            0.012419     0.000300     NO 
 Maximum Displacement     0.128666     0.001800     NO 
 RMS     Displacement     0.061546     0.001200     NO 
 Predicted change in Energy=-1.569943D-02
 GradGradGradGradGradGradGradGradGradGradGradGradGradGradGradGradGradGrad

                          Input orientation:                          
 ---------------------------------------------------------------------
 Center     Atomic      Atomic             Coordinates (Angstroms)
 Number     Number       Type             X           Y           Z
 ---------------------------------------------------------------------
      1          6           0       -1.216313   -0.140800    0.000981
      2          6           0        0.335726   -0.158619    0.002379
      3          1           0       -1.600499    0.866637   -0.001399
      4          1           0       -1.608950   -0.642735   -0.868355
      5          1           0       -1.609803   -0.639100    0.871907
      6          6           0        0.938805   -1.594640   -0.001331
      7          1           0        0.700052    0.377997   -0.859946
      8          1           0        0.694484    0.369191    0.872919
      9          6           0        2.490581   -1.614282   -0.000011
     10          1           0        0.575691   -2.129419    0.863169
     11          1           0        0.576568   -2.128422   -0.867041
     12          1           0        2.873689   -2.622092   -0.000930
     13          1           0        2.884937   -1.113390   -0.869126
     14          1           0        2.883446   -1.115563    0.871049
 ---------------------------------------------------------------------
                    Distance matrix (angstroms):
                    1          2          3          4          5
     1  C    0.000000
     2  C    1.552141   0.000000
     3  H    1.078209   2.190920   0.000000
     4  H    1.077890   2.185019   1.740657   0.000000
     5  H    1.077798   2.184496   1.740687   1.740265   0.000000
     6  C    2.599652   1.557522   3.536375   2.854630   2.858497
     7  H    2.163978   1.079024   2.503679   2.524570   3.060919
     8  H    2.161367   1.079412   2.505759   3.059711   2.515231
     9  C    3.989011   2.600454   4.784547   4.301636   4.303994
    10  H    2.812339   2.163931   3.802582   3.159281   2.645281
    11  H    2.813987   2.166569   3.802543   2.642679   3.165791
    12  H    4.783819   3.536944   5.673587   4.976378   4.979538
    13  H    4.303866   2.858248   4.979215   4.518466   4.843431
    14  H    4.302929   2.856783   4.979563   4.840528   4.518440
                    6          7          8          9         10
     6  C    0.000000
     7  H    2.164606   0.000000
     8  H    2.163478   1.732896   0.000000
     9  C    1.551900   2.813300   2.814628   0.000000
    10  H    1.079445   3.044951   2.501452   2.162695   0.000000
    11  H    1.079626   2.509469   3.046217   2.163222   1.730211
    12  H    2.190761   3.803044   3.802673   1.078172   2.504035
    13  H    2.184513   2.645381   3.167151   1.077855   3.060356
    14  H    2.184534   3.161372   2.645005   1.077872   2.520655
                   11         12         13         14
    11  H    0.000000
    12  H    2.504122   0.000000
    13  H    2.521679   1.740711   0.000000
    14  H    3.060805   1.740710   1.740176   0.000000
 Stoichiometry    C4H10
 Framework group  C1[X(C4H10)]
 Deg. of freedom    36
 Full point group                 C1      NOp   1
 Largest Abelian subgroup         C1      NOp   1
 Largest concise Abelian subgroup C1      NOp   1
                         Standard orientation:                         
 ---------------------------------------------------------------------
 Center     Atomic      Atomic             Coordinates (Angstroms)
 Number     Number       Type             X           Y           Z
 ---------------------------------------------------------------------
      1          6           0        1.990561    0.123662   -0.000291
      2          6           0        0.578932   -0.521665   -0.000345
      3          1           0        2.767456   -0.623961   -0.005522
      4          1           0        2.131422    0.747938   -0.867635
      5          1           0        2.134587    0.739255    0.872606
      6          6           0       -0.578638    0.520404   -0.000045
      7          1           0        0.477623   -1.159519   -0.864735
      8          1           0        0.479748   -1.154914    0.868153
      9          6           0       -1.990806   -0.123161   -0.000169
     10          1           0       -0.477641    1.156074    0.866514
     11          1           0       -0.478849    1.160523   -0.863690
     12          1           0       -2.766887    0.625270    0.001764
     13          1           0       -2.134509   -0.741475   -0.871265
     14          1           0       -2.133243   -0.744631    0.868908
 ---------------------------------------------------------------------
 Rotational constants (GHZ):     23.6505303      3.5112621      3.2998548
 Standard basis: STO-3G (5D, 7F)
 There are    30 symmetry adapted cartesian basis functions of A   symmetry.
 There are    30 symmetry adapted basis functions of A   symmetry.
    30 basis functions,    90 primitive gaussians,    30 cartesian basis functions
    17 alpha electrons       17 beta electrons
       nuclear repulsion energy       129.7126107970 Hartrees.
 NAtoms=   14 NActive=   14 NUniq=   14 SFac= 1.00D+00 NAtFMM=   60 NAOKFM=F Big=F
 Integral buffers will be    131072 words long.
 Raffenetti 1 integral format.
 Two-electron integral symmetry is turned on.
 One-electron integrals computed using PRISM.
 NBasis=    30 RedAO= T EigKep=  2.01D-01  NBF=    30
 NBsUse=    30 1.00D-06 EigRej= -1.00D+00 NBFU=    30
 Initial guess from the checkpoint file:  "butane.chk"
 B after Tr=     0.000000    0.000000    0.000000
         Rot=    0.999999   -0.001656   -0.000131   -0.000401 Ang=  -0.20 deg.
 ExpMin= 1.69D-01 ExpMax= 7.16D+01 ExpMxC= 7.16D+01 IAcc=1 IRadAn=         1 AccDes= 0.00D+00
 Harris functional with IExCor=  205 and IRadAn=       1 diagonalized for initial guess.
 HarFok:  IExCor=  205 AccDes= 0.00D+00 IRadAn=         1 IDoV= 1 UseB2=F ITyADJ=14
 ICtDFT=  3500011 ScaDFX=  1.000000  1.000000  1.000000  1.000000
 FoFCou: FMM=F IPFlag=           0 FMFlag=      100000 FMFlg1=           0
         NFxFlg=           0 DoJE=T BraDBF=F KetDBF=T FulRan=T
         wScrn=  0.000000 ICntrl=     500 IOpCl=  0 I1Cent=   200000004 NGrid=           0
         NMat0=    1 NMatS0=      1 NMatT0=    0 NMatD0=    1 NMtDS0=    0 NMtDT0=    0
 Petite list used in FoFCou.
 Keep R1 ints in memory in canonical form, NReq=952405.
 Requested convergence on RMS density matrix=1.00D-08 within 128 cycles.
 Requested convergence on MAX density matrix=1.00D-06.
 Requested convergence on             energy=1.00D-06.
 No special actions if energy rises.
 SCF Done:  E(RHF) =  -155.465344340     A.U. after    8 cycles
            NFock=  8  Conv=0.30D-08     -V/T= 2.0086
 Calling FoFJK, ICntrl=      2127 FMM=F ISym2X=0 I1Cent= 0 IOpClX= 0 NMat=1 NMatS=1 NMatT=0.
 ***** Axes restored to original set *****
 -------------------------------------------------------------------
 Center     Atomic                   Forces (Hartrees/Bohr)
 Number     Number              X              Y              Z
 -------------------------------------------------------------------
      1        6           0.011630749   -0.004014534   -0.000327017
      2        6          -0.005008243   -0.011258163    0.000525072
      3        1           0.000787505    0.007939071    0.000017483
      4        1          -0.001162566   -0.003930448   -0.006749330
      5        1          -0.001176072   -0.003969171    0.006801290
      6        6           0.004368058    0.010075286    0.000182718
      7        1           0.002117313    0.004080653   -0.007677216
      8        1           0.002303059    0.003940713    0.007268294
      9        6          -0.011527852    0.004199549   -0.000039838
     10        1          -0.001951132   -0.003667398    0.007628942
     11        1          -0.001947181   -0.003287450   -0.007612441
     12        1          -0.000796533   -0.007962594   -0.000014298
     13        1           0.001198821    0.003938612   -0.006774341
     14        1           0.001164075    0.003915875    0.006770680
 -------------------------------------------------------------------
 Cartesian Forces:  Max     0.011630749 RMS     0.005467013

 GradGradGradGradGradGradGradGradGradGradGradGradGradGradGradGradGradGrad
 Berny optimization.
 Using GEDIIS/GDIIS optimizer.
 FormGI is forming the generalized inverse of G from B-inverse, IUseBI=4.
 GSVD:  received Info=                   1 from GESDD.
 Internal  Forces:  Max     0.010324869 RMS     0.004179977
 Search for a local minimum.
 Step number   2 out of a maximum of   74 on scan point     1 out of    37
 All quantities printed in internal units (Hartrees-Bohrs-Radians)
 Mixed Optimization -- RFO/linear search
 Update second derivatives using D2CorX and points    1    2
 DE= -9.83D-03 DEPred=-1.57D-02 R= 6.26D-01
 TightC=F SS=  1.41D+00  RLast= 2.99D-01 DXNew= 5.0454D-01 8.9658D-01
 Trust test= 6.26D-01 RLast= 2.99D-01 DXMaxT set to 5.05D-01
 ITU=  1  0
 Use linear search instead of GDIIS.
     Eigenvalues ---    0.00677   0.00677   0.01728   0.03674   0.05009
     Eigenvalues ---    0.05086   0.05665   0.05666   0.05720   0.05723
     Eigenvalues ---    0.08577   0.08601   0.10890   0.12362   0.16000
     Eigenvalues ---    0.16000   0.16000   0.16000   0.16000   0.16164
     Eigenvalues ---    0.21931   0.22100   0.30973   0.31347   0.31348
     Eigenvalues ---    0.31350   0.31504   0.31682   0.31751   0.31876
     Eigenvalues ---    0.31876   0.31877   0.31893   0.31903   0.44903
     Eigenvalues --- 1000.000001000.000001000.000001000.000001000.00000
     Eigenvalues --- 1000.000001000.000001000.000001000.000001000.00000
     Eigenvalues --- 1000.000001000.000001000.000001000.000001000.00000
     Eigenvalues --- 1000.000001000.000001000.000001000.000001000.00000
     Eigenvalues --- 1000.000001000.000001000.000001000.000001000.00000
     Eigenvalues --- 1000.000001000.000001000.000001000.00000
 RFO step:  Lambda=-2.74102359D-04 EMin= 6.76869556D-03
 Quartic linear search produced a step of -0.24382.
 Iteration  1 RMS(Cart)=  0.02258587 RMS(Int)=  0.00008602
 Iteration  2 RMS(Cart)=  0.00010710 RMS(Int)=  0.00003514
 Iteration  3 RMS(Cart)=  0.00000001 RMS(Int)=  0.00003514
 Iteration  1 RMS(Cart)=  0.00000429 RMS(Int)=  0.00000302
 Iteration  2 RMS(Cart)=  0.00000282 RMS(Int)=  0.00000335
 Iteration  3 RMS(Cart)=  0.00000186 RMS(Int)=  0.00000385
 Iteration  4 RMS(Cart)=  0.00000122 RMS(Int)=  0.00000426
 Iteration  5 RMS(Cart)=  0.00000080 RMS(Int)=  0.00000456
 Variable       Old X    -DE/DX   Delta X   Delta X   Delta X     New X
                                 (Linear)    (Quad)   (Total)
    R1        2.93312  -0.01012  -0.02093   0.00043  -0.02050   2.91263
    R2        2.03752   0.00714   0.01773  -0.00390   0.01383   2.05135
    R3        2.03692   0.00770   0.01799  -0.00286   0.01512   2.05204
    R4        2.03674   0.00776   0.01804  -0.00277   0.01526   2.05201
    R5        2.94329  -0.01032  -0.01994  -0.00175  -0.02168   2.92161
    R6        2.03906   0.00888   0.01987  -0.00196   0.01791   2.05697
    R7        2.03979   0.00855   0.01969  -0.00253   0.01716   2.05695
    R8        2.93267  -0.01001  -0.02081   0.00056  -0.02025   2.91242
    R9        2.03985   0.00858   0.01966  -0.00243   0.01723   2.05709
   R10        2.04020   0.00838   0.01958  -0.00282   0.01676   2.05696
   R11        2.03745   0.00716   0.01774  -0.00386   0.01388   2.05133
   R12        2.03685   0.00773   0.01801  -0.00281   0.01520   2.05205
   R13        2.03688   0.00771   0.01800  -0.00286   0.01515   2.05203
    A1        1.94660  -0.00433  -0.00497  -0.01526  -0.02029   1.92632
    A2        1.93866  -0.00122  -0.00167  -0.00292  -0.00461   1.93404
    A3        1.93802  -0.00125  -0.00154  -0.00331  -0.00488   1.93314
    A4        1.87919   0.00276   0.00314   0.00777   0.01085   1.89004
    A5        1.87935   0.00276   0.00307   0.00776   0.01077   1.89012
    A6        1.87909   0.00170   0.00239   0.00733   0.00973   1.88882
    A7        1.97987  -0.00551  -0.00780  -0.01113  -0.01889   1.96099
    A8        1.90836   0.00113   0.00128  -0.00220  -0.00093   1.90743
    A9        1.90440   0.00145   0.00141   0.00271   0.00428   1.90868
   A10        1.90274   0.00187   0.00159   0.00338   0.00489   1.90763
   A11        1.90082   0.00176  -0.00184   0.01051   0.00869   1.90951
   A12        1.86411  -0.00041   0.00596  -0.00280   0.00313   1.86724
   A13        1.98105  -0.00547  -0.00809  -0.01221  -0.02032   1.96072
   A14        1.90140   0.00182   0.00192   0.00401   0.00588   1.90728
   A15        1.90481   0.00155   0.00108   0.00255   0.00357   1.90838
   A16        1.90648   0.00120   0.00175  -0.00062   0.00115   1.90763
   A17        1.90701   0.00132   0.00161  -0.00069   0.00090   1.90792
   A18        1.85916  -0.00010   0.00227   0.00827   0.01052   1.86968
   A19        1.94672  -0.00436  -0.00495  -0.01546  -0.02047   1.92625
   A20        1.93829  -0.00120  -0.00162  -0.00291  -0.00455   1.93373
   A21        1.93830  -0.00123  -0.00162  -0.00304  -0.00468   1.93362
   A22        1.87936   0.00275   0.00311   0.00765   0.01071   1.89007
   A23        1.87934   0.00276   0.00312   0.00768   0.01074   1.89008
   A24        1.87890   0.00170   0.00239   0.00743   0.00983   1.88873
    D1       -3.13659   0.00002  -0.00125   0.00163   0.00037  -3.13622
    D2       -1.00884  -0.00052  -0.00355  -0.00323  -0.00676  -1.01560
    D3        1.02419   0.00044   0.00521  -0.00630  -0.00110   1.02308
    D4       -1.04017  -0.00023  -0.00170  -0.00079  -0.00248  -1.04265
    D5        1.08758  -0.00077  -0.00400  -0.00565  -0.00961   1.07797
    D6        3.12061   0.00019   0.00476  -0.00871  -0.00396   3.11666
    D7        1.05040   0.00029  -0.00081   0.00432   0.00348   1.05387
    D8       -3.10504  -0.00026  -0.00312  -0.00054  -0.00365  -3.10869
    D9       -1.07201   0.00070   0.00564  -0.00361   0.00200  -1.07001
   D10        3.14154  -0.00014   0.00000   0.00000   0.00001   3.14155
   D11       -1.01336  -0.00097  -0.00181  -0.00612  -0.00793  -1.02129
   D12        1.01008   0.00077   0.00260   0.00736   0.00999   1.02007
   D13        1.01066   0.00080   0.00245   0.00792   0.01038   1.02104
   D14        3.13894  -0.00003   0.00064   0.00179   0.00244   3.14139
   D15       -1.12080   0.00171   0.00505   0.01528   0.02036  -1.10043
   D16       -1.01723  -0.00072  -0.00452   0.00359  -0.00099  -1.01822
   D17        1.11105  -0.00155  -0.00634  -0.00253  -0.00893   1.10212
   D18        3.13450   0.00019  -0.00193   0.01095   0.00899  -3.13970
   D19        3.13988   0.00010   0.00041   0.00055   0.00097   3.14085
   D20       -1.04683  -0.00017  -0.00002  -0.00214  -0.00214  -1.04897
   D21        1.04343   0.00036   0.00085   0.00328   0.00412   1.04754
   D22        1.01442   0.00060   0.00215   0.00414   0.00628   1.02070
   D23        3.11090   0.00033   0.00172   0.00145   0.00317   3.11406
   D24       -1.08203   0.00087   0.00259   0.00688   0.00943  -1.07260
   D25       -1.01307  -0.00070  -0.00251  -0.00503  -0.00752  -1.02060
   D26        1.08340  -0.00096  -0.00295  -0.00772  -0.01063   1.07277
   D27       -3.10952  -0.00043  -0.00208  -0.00230  -0.00438  -3.11390
         Item               Value     Threshold  Converged?
 Maximum Force            0.010325     0.000450     NO 
 RMS     Force            0.004213     0.000300     NO 
 Maximum Displacement     0.060242     0.001800     NO 
 RMS     Displacement     0.022646     0.001200     NO 
 Predicted change in Energy=-1.348911D-03
 GradGradGradGradGradGradGradGradGradGradGradGradGradGradGradGradGradGrad

                          Input orientation:                          
 ---------------------------------------------------------------------
 Center     Atomic      Atomic             Coordinates (Angstroms)
 Number     Number       Type             X           Y           Z
 ---------------------------------------------------------------------
      1          6           0       -1.195207   -0.154896    0.001408
      2          6           0        0.346073   -0.161602    0.003230
      3          1           0       -1.568620    0.864381   -0.000951
      4          1           0       -1.582206   -0.661661   -0.877560
      5          1           0       -1.583351   -0.658098    0.881894
      6          6           0        0.927912   -1.593981   -0.001077
      7          1           0        0.708997    0.376742   -0.870446
      8          1           0        0.708195    0.373240    0.879373
      9          6           0        2.469083   -1.600282    0.000686
     10          1           0        0.564944   -2.131986    0.872865
     11          1           0        0.566688   -2.127205   -0.878582
     12          1           0        2.842699   -2.619474   -0.001665
     13          1           0        2.857682   -1.092788   -0.877160
     14          1           0        2.855526   -1.097628    0.882248
 ---------------------------------------------------------------------
                    Distance matrix (angstroms):
                    1          2          3          4          5
     1  C    0.000000
     2  C    1.541295   0.000000
     3  H    1.085527   2.172259   0.000000
     4  H    1.085893   2.178098   1.759953   0.000000
     5  H    1.085875   2.177438   1.759993   1.759458   0.000000
     6  C    2.564879   1.546048   3.503743   2.817470   2.821694
     7  H    2.160731   1.088503   2.486233   2.515540   3.065363
     8  H    2.161640   1.088492   2.489995   3.066557   2.512936
     9  C    3.939055   2.564561   4.730498   4.250325   4.252817
    10  H    2.786836   2.164851   3.780723   3.136255   2.605302
    11  H    2.787231   2.165608   3.778804   2.601070   3.143281
    12  H    4.730628   3.503470   5.621119   4.917317   4.921137
    13  H    4.251756   2.819641   4.918374   4.460771   4.796458
    14  H    4.251242   2.818895   4.919613   4.793793   4.460584
                    6          7          8          9         10
     6  C    0.000000
     7  H    2.165057   0.000000
     8  H    2.166431   1.749822   0.000000
     9  C    1.541184   2.786646   2.787042   0.000000
    10  H    1.088563   3.058365   2.509326   2.160821   0.000000
    11  H    1.088497   2.508000   3.059845   2.160987   1.751454
    12  H    2.172106   3.779520   3.780036   1.085517   2.488095
    13  H    2.177781   2.603154   3.139258   1.085898   3.065807
    14  H    2.177687   3.138995   2.602785   1.085887   2.513314
                   11         12         13         14
    11  H    0.000000
    12  H    2.488280   0.000000
    13  H    2.513698   1.759968   0.000000
    14  H    3.065832   1.759966   1.759416   0.000000
 Stoichiometry    C4H10
 Framework group  C1[X(C4H10)]
 Deg. of freedom    36
 Full point group                 C1      NOp   1
 Largest Abelian subgroup         C1      NOp   1
 Largest concise Abelian subgroup C1      NOp   1
                         Standard orientation:                         
 ---------------------------------------------------------------------
 Center     Atomic      Atomic             Coordinates (Angstroms)
 Number     Number       Type             X           Y           Z
 ---------------------------------------------------------------------
      1          6           0        1.965581    0.125584    0.000027
      2          6           0        0.567940   -0.524178    0.000028
      3          1           0        2.737213   -0.637911   -0.005452
      4          1           0        2.099808    0.752082   -0.876697
      5          1           0        2.103075    0.742875    0.882734
      6          6           0       -0.568088    0.524490    0.000038
      7          1           0        0.468225   -1.162565   -0.875961
      8          1           0        0.468171   -1.165489    0.873859
      9          6           0       -1.965458   -0.125592   -0.000022
     10          1           0       -0.468189    1.162588    0.876291
     11          1           0       -0.468444    1.163959   -0.875162
     12          1           0       -2.737239    0.637756    0.000747
     13          1           0       -2.101537   -0.746972   -0.880104
     14          1           0       -2.100931   -0.748143    0.879312
 ---------------------------------------------------------------------
 Rotational constants (GHZ):     23.2747360      3.5980251      3.3746687
 Standard basis: STO-3G (5D, 7F)
 There are    30 symmetry adapted cartesian basis functions of A   symmetry.
 There are    30 symmetry adapted basis functions of A   symmetry.
    30 basis functions,    90 primitive gaussians,    30 cartesian basis functions
    17 alpha electrons       17 beta electrons
       nuclear repulsion energy       130.2381093161 Hartrees.
 NAtoms=   14 NActive=   14 NUniq=   14 SFac= 1.00D+00 NAtFMM=   60 NAOKFM=F Big=F
 Integral buffers will be    131072 words long.
 Raffenetti 1 integral format.
 Two-electron integral symmetry is turned on.
 One-electron integrals computed using PRISM.
 NBasis=    30 RedAO= T EigKep=  2.02D-01  NBF=    30
 NBsUse=    30 1.00D-06 EigRej= -1.00D+00 NBFU=    30
 Initial guess from the checkpoint file:  "butane.chk"
 B after Tr=     0.000000    0.000000    0.000000
         Rot=    1.000000   -0.000137    0.000035    0.000201 Ang=  -0.03 deg.
 ExpMin= 1.69D-01 ExpMax= 7.16D+01 ExpMxC= 7.16D+01 IAcc=1 IRadAn=         1 AccDes= 0.00D+00
 Harris functional with IExCor=  205 and IRadAn=       1 diagonalized for initial guess.
 HarFok:  IExCor=  205 AccDes= 0.00D+00 IRadAn=         1 IDoV= 1 UseB2=F ITyADJ=14
 ICtDFT=  3500011 ScaDFX=  1.000000  1.000000  1.000000  1.000000
 FoFCou: FMM=F IPFlag=           0 FMFlag=      100000 FMFlg1=           0
         NFxFlg=           0 DoJE=T BraDBF=F KetDBF=T FulRan=T
         wScrn=  0.000000 ICntrl=     500 IOpCl=  0 I1Cent=   200000004 NGrid=           0
         NMat0=    1 NMatS0=      1 NMatT0=    0 NMatD0=    1 NMtDS0=    0 NMtDT0=    0
 Petite list used in FoFCou.
 Keep R1 ints in memory in canonical form, NReq=952435.
 Requested convergence on RMS density matrix=1.00D-08 within 128 cycles.
 Requested convergence on MAX density matrix=1.00D-06.
 Requested convergence on             energy=1.00D-06.
 No special actions if energy rises.
 SCF Done:  E(RHF) =  -155.466636107     A.U. after    8 cycles
            NFock=  8  Conv=0.83D-09     -V/T= 2.0087
 Calling FoFJK, ICntrl=      2127 FMM=F ISym2X=0 I1Cent= 0 IOpClX= 0 NMat=1 NMatS=1 NMatT=0.
 ***** Axes restored to original set *****
 -------------------------------------------------------------------
 Center     Atomic                   Forces (Hartrees/Bohr)
 Number     Number              X              Y              Z
 -------------------------------------------------------------------
      1        6           0.000696984    0.000492415    0.000191314
      2        6          -0.000364523   -0.001037478   -0.000538662
      3        1          -0.000673955    0.000250191    0.000023137
      4        1           0.000060308   -0.000024970   -0.000071496
      5        1          -0.000070947   -0.000045940    0.000046817
      6        6           0.000424773    0.001432078    0.000376418
      7        1          -0.000009411   -0.000261091   -0.000222636
      8        1          -0.000069352   -0.000425252    0.000294456
      9        6          -0.000575068   -0.000488540   -0.000024977
     10        1          -0.000017705    0.000097826   -0.000001410
     11        1          -0.000077337    0.000217332   -0.000075934
     12        1           0.000688928   -0.000257685   -0.000001752
     13        1          -0.000010818    0.000026336   -0.000056342
     14        1          -0.000001880    0.000024778    0.000061066
 -------------------------------------------------------------------
 Cartesian Forces:  Max     0.001432078 RMS     0.000400942

 GradGradGradGradGradGradGradGradGradGradGradGradGradGradGradGradGradGrad
 Berny optimization.
 Using GEDIIS/GDIIS optimizer.
 FormGI is forming the generalized inverse of G from B-inverse, IUseBI=4.
 Internal  Forces:  Max     0.000849583 RMS     0.000280973
 Search for a local minimum.
 Step number   3 out of a maximum of   74 on scan point     1 out of    37
 All quantities printed in internal units (Hartrees-Bohrs-Radians)
 Mixed Optimization -- En-DIIS/RFO-DIIS
 Update second derivatives using D2CorX and points    1    2    3
 DE= -1.29D-03 DEPred=-1.35D-03 R= 9.58D-01
 TightC=F SS=  1.41D+00  RLast= 8.85D-02 DXNew= 8.4853D-01 2.6536D-01
 Trust test= 9.58D-01 RLast= 8.85D-02 DXMaxT set to 5.05D-01
 ITU=  1  1  0
 Use linear search instead of GDIIS.
     Eigenvalues ---    0.00677   0.00677   0.01771   0.03790   0.05052
     Eigenvalues ---    0.05108   0.05773   0.05800   0.05816   0.05817
     Eigenvalues ---    0.08397   0.08421   0.10733   0.12220   0.15934
     Eigenvalues ---    0.16000   0.16000   0.16000   0.16000   0.16668
     Eigenvalues ---    0.21922   0.22705   0.30865   0.31347   0.31348
     Eigenvalues ---    0.31350   0.31505   0.31681   0.31772   0.31876
     Eigenvalues ---    0.31876   0.31877   0.31898   0.31903   0.45213
     Eigenvalues --- 1000.000001000.000001000.000001000.000001000.00000
     Eigenvalues --- 1000.000001000.000001000.000001000.000001000.00000
     Eigenvalues --- 1000.000001000.000001000.000001000.000001000.00000
     Eigenvalues --- 1000.000001000.000001000.000001000.000001000.00000
     Eigenvalues --- 1000.000001000.000001000.000001000.000001000.00000
     Eigenvalues --- 1000.000001000.000001000.000001000.00000
 RFO step:  Lambda=-2.71227534D-05 EMin= 6.76863605D-03
 Quartic linear search produced a step of -0.01900.
 Iteration  1 RMS(Cart)=  0.00232164 RMS(Int)=  0.00000397
 Iteration  2 RMS(Cart)=  0.00000413 RMS(Int)=  0.00000122
 Iteration  3 RMS(Cart)=  0.00000000 RMS(Int)=  0.00000122
 Iteration  1 RMS(Cart)=  0.00000038 RMS(Int)=  0.00000027
 Variable       Old X    -DE/DX   Delta X   Delta X   Delta X     New X
                                 (Linear)    (Quad)   (Total)
    R1        2.91263  -0.00001   0.00039  -0.00072  -0.00033   2.91229
    R2        2.05135   0.00047  -0.00026   0.00190   0.00164   2.05299
    R3        2.05204   0.00005  -0.00029   0.00067   0.00038   2.05242
    R4        2.05201   0.00008  -0.00029   0.00078   0.00049   2.05250
    R5        2.92161  -0.00081   0.00041  -0.00328  -0.00286   2.91874
    R6        2.05697   0.00005  -0.00034   0.00076   0.00042   2.05739
    R7        2.05695   0.00000  -0.00033   0.00060   0.00028   2.05723
    R8        2.91242   0.00010   0.00038  -0.00037   0.00002   2.91243
    R9        2.05709  -0.00004  -0.00033   0.00046   0.00013   2.05722
   R10        2.05696  -0.00002  -0.00032   0.00052   0.00020   2.05716
   R11        2.05133   0.00048  -0.00026   0.00194   0.00168   2.05301
   R12        2.05205   0.00005  -0.00029   0.00069   0.00040   2.05245
   R13        2.05203   0.00006  -0.00029   0.00071   0.00042   2.05245
    A1        1.92632   0.00083   0.00039   0.00500   0.00539   1.93170
    A2        1.93404  -0.00028   0.00009  -0.00220  -0.00211   1.93193
    A3        1.93314  -0.00005   0.00009  -0.00070  -0.00061   1.93253
    A4        1.89004  -0.00024  -0.00021  -0.00072  -0.00092   1.88912
    A5        1.89012  -0.00032  -0.00020  -0.00085  -0.00105   1.88907
    A6        1.88882   0.00004  -0.00018  -0.00061  -0.00080   1.88802
    A7        1.96099   0.00077   0.00036   0.00226   0.00262   1.96361
    A8        1.90743  -0.00016   0.00002   0.00044   0.00046   1.90789
    A9        1.90868  -0.00021  -0.00008  -0.00123  -0.00131   1.90737
   A10        1.90763  -0.00030  -0.00009  -0.00109  -0.00119   1.90644
   A11        1.90951  -0.00045  -0.00017  -0.00372  -0.00389   1.90563
   A12        1.86724   0.00033  -0.00006   0.00341   0.00335   1.87059
   A13        1.96072   0.00070   0.00039   0.00253   0.00292   1.96365
   A14        1.90728  -0.00022  -0.00011  -0.00059  -0.00071   1.90658
   A15        1.90838  -0.00037  -0.00007  -0.00274  -0.00281   1.90558
   A16        1.90763  -0.00018  -0.00002   0.00023   0.00020   1.90783
   A17        1.90792  -0.00012  -0.00002  -0.00030  -0.00032   1.90760
   A18        1.86968   0.00016  -0.00020   0.00081   0.00060   1.87028
   A19        1.92625   0.00085   0.00039   0.00511   0.00550   1.93175
   A20        1.93373  -0.00018   0.00009  -0.00157  -0.00148   1.93225
   A21        1.93362  -0.00017   0.00009  -0.00148  -0.00139   1.93222
   A22        1.89007  -0.00028  -0.00020  -0.00081  -0.00101   1.88905
   A23        1.89008  -0.00029  -0.00020  -0.00081  -0.00102   1.88906
   A24        1.88873   0.00005  -0.00019  -0.00051  -0.00070   1.88802
    D1       -3.13622  -0.00007  -0.00001  -0.00301  -0.00302  -3.13924
    D2       -1.01560  -0.00005   0.00013  -0.00259  -0.00246  -1.01806
    D3        1.02308   0.00013   0.00002   0.00106   0.00109   1.02417
    D4       -1.04265  -0.00001   0.00005  -0.00207  -0.00203  -1.04467
    D5        1.07797   0.00001   0.00018  -0.00165  -0.00147   1.07650
    D6        3.11666   0.00020   0.00008   0.00200   0.00208   3.11873
    D7        1.05387  -0.00018  -0.00007  -0.00476  -0.00482   1.04905
    D8       -3.10869  -0.00016   0.00007  -0.00433  -0.00426  -3.11296
    D9       -1.07001   0.00002  -0.00004  -0.00068  -0.00071  -1.07072
   D10        3.14155   0.00004   0.00000   0.00000   0.00000   3.14155
   D11       -1.02129   0.00013   0.00015   0.00155   0.00170  -1.01959
   D12        1.02007  -0.00001  -0.00019   0.00062   0.00043   1.02050
   D13        1.02104  -0.00005  -0.00020  -0.00130  -0.00150   1.01955
   D14        3.14139   0.00004  -0.00005   0.00025   0.00021  -3.14159
   D15       -1.10043  -0.00011  -0.00039  -0.00068  -0.00107  -1.10150
   D16       -1.01822  -0.00002   0.00002  -0.00266  -0.00264  -1.02086
   D17        1.10212   0.00006   0.00017  -0.00111  -0.00094   1.10118
   D18       -3.13970  -0.00008  -0.00017  -0.00204  -0.00221   3.14127
   D19        3.14085   0.00005  -0.00002   0.00120   0.00119  -3.14115
   D20       -1.04897   0.00013   0.00004   0.00250   0.00254  -1.04643
   D21        1.04754  -0.00003  -0.00008  -0.00015  -0.00023   1.04731
   D22        1.02070  -0.00001  -0.00012   0.00012   0.00000   1.02070
   D23        3.11406   0.00008  -0.00006   0.00142   0.00136   3.11542
   D24       -1.07260  -0.00009  -0.00018  -0.00124  -0.00141  -1.07402
   D25       -1.02060  -0.00004   0.00014  -0.00080  -0.00066  -1.02126
   D26        1.07277   0.00005   0.00020   0.00050   0.00070   1.07347
   D27       -3.11390  -0.00012   0.00008  -0.00216  -0.00208  -3.11597
         Item               Value     Threshold  Converged?
 Maximum Force            0.000850     0.000450     NO 
 RMS     Force            0.000283     0.000300     YES
 Maximum Displacement     0.008591     0.001800     NO 
 RMS     Displacement     0.002321     0.001200     NO 
 Predicted change in Energy=-1.405360D-05
 GradGradGradGradGradGradGradGradGradGradGradGradGradGradGradGradGradGrad

                          Input orientation:                          
 ---------------------------------------------------------------------
 Center     Atomic      Atomic             Coordinates (Angstroms)
 Number     Number       Type             X           Y           Z
 ---------------------------------------------------------------------
      1          6           0       -1.195484   -0.153239    0.001335
      2          6           0        0.345608   -0.162314    0.002277
      3          1           0       -1.573122    0.865407    0.000699
      4          1           0       -1.581689   -0.659487   -0.878529
      5          1           0       -1.583387   -0.658980    0.880794
      6          6           0        0.928425   -1.592662   -0.000160
      7          1           0        0.709399    0.374638   -0.872169
      8          1           0        0.707742    0.370040    0.880112
      9          6           0        2.469591   -1.601793    0.000719
     10          1           0        0.564740   -2.129689    0.874170
     11          1           0        0.566014   -2.125061   -0.877807
     12          1           0        2.847245   -2.620443   -0.001486
     13          1           0        2.857196   -1.093732   -0.877502
     14          1           0        2.856137   -1.097920    0.881812
 ---------------------------------------------------------------------
                    Distance matrix (angstroms):
                    1          2          3          4          5
     1  C    0.000000
     2  C    1.541119   0.000000
     3  H    1.086394   2.176635   0.000000
     4  H    1.086094   2.176573   1.760232   0.000000
     5  H    1.086136   2.177037   1.760236   1.759324   0.000000
     6  C    2.565723   1.544532   3.507114   2.818336   2.820823
     7  H    2.161074   1.088723   2.492520   2.513670   3.065634
     8  H    2.160634   1.088639   2.494213   3.065002   2.511605
     9  C    3.940950   2.565816   4.736097   4.251339   4.253241
    10  H    2.786859   2.163049   3.782064   3.136973   2.603359
    11  H    2.786368   2.162291   3.780288   2.600103   3.140381
    12  H    4.736112   3.507221   5.629459   4.922399   4.925064
    13  H    4.252187   2.819509   4.923128   4.460075   4.795768
    14  H    4.252446   2.819875   4.924363   4.794301   4.461171
                    6          7          8          9         10
     6  C    0.000000
     7  H    2.163016   0.000000
     8  H    2.162356   1.752287   0.000000
     9  C    1.541193   2.786842   2.786678   0.000000
    10  H    1.088631   3.056514   2.503824   2.161030   0.000000
    11  H    1.088602   2.503814   3.055470   2.160839   1.751984
    12  H    2.176742   3.781399   3.781227   1.086404   2.493480
    13  H    2.176882   2.601763   3.138788   1.086110   3.065439
    14  H    2.176860   3.139006   2.602021   1.086108   2.512988
                   11         12         13         14
    11  H    0.000000
    12  H    2.493463   0.000000
    13  H    2.512599   1.760213   0.000000
    14  H    3.065280   1.760218   1.759318   0.000000
 Stoichiometry    C4H10
 Framework group  C1[X(C4H10)]
 Deg. of freedom    36
 Full point group                 C1      NOp   1
 Largest Abelian subgroup         C1      NOp   1
 Largest concise Abelian subgroup C1      NOp   1
                         Standard orientation:                         
 ---------------------------------------------------------------------
 Center     Atomic      Atomic             Coordinates (Angstroms)
 Number     Number       Type             X           Y           Z
 ---------------------------------------------------------------------
      1          6           0        1.966500    0.124751   -0.000022
      2          6           0        0.568162   -0.523091    0.000062
      3          1           0        2.741854   -0.636217   -0.002363
      4          1           0        2.100195    0.748958   -0.878710
      5          1           0        2.102454    0.745795    0.880610
      6          6           0       -0.568116    0.523069   -0.000011
      7          1           0        0.467313   -1.162122   -0.875601
      8          1           0        0.467360   -1.160670    0.876685
      9          6           0       -1.966544   -0.124754    0.000009
     10          1           0       -0.467394    1.162122    0.875537
     11          1           0       -0.467082    1.160805   -0.876446
     12          1           0       -2.741915    0.636215   -0.000489
     13          1           0       -2.101241   -0.747773   -0.879387
     14          1           0       -2.101559   -0.746960    0.879931
 ---------------------------------------------------------------------
 Rotational constants (GHZ):     23.3367052      3.5941566      3.3727820
 Standard basis: STO-3G (5D, 7F)
 There are    30 symmetry adapted cartesian basis functions of A   symmetry.
 There are    30 symmetry adapted basis functions of A   symmetry.
    30 basis functions,    90 primitive gaussians,    30 cartesian basis functions
    17 alpha electrons       17 beta electrons
       nuclear repulsion energy       130.2341244159 Hartrees.
 NAtoms=   14 NActive=   14 NUniq=   14 SFac= 1.00D+00 NAtFMM=   60 NAOKFM=F Big=F
 Integral buffers will be    131072 words long.
 Raffenetti 1 integral format.
 Two-electron integral symmetry is turned on.
 One-electron integrals computed using PRISM.
 NBasis=    30 RedAO= T EigKep=  2.02D-01  NBF=    30
 NBsUse=    30 1.00D-06 EigRej= -1.00D+00 NBFU=    30
 Initial guess from the checkpoint file:  "butane.chk"
 B after Tr=     0.000000    0.000000    0.000000
         Rot=    1.000000    0.000732    0.000024   -0.000007 Ang=   0.08 deg.
 Keep R1 ints in memory in canonical form, NReq=952435.
 Requested convergence on RMS density matrix=1.00D-08 within 128 cycles.
 Requested convergence on MAX density matrix=1.00D-06.
 Requested convergence on             energy=1.00D-06.
 No special actions if energy rises.
 SCF Done:  E(RHF) =  -155.466644152     A.U. after    6 cycles
            NFock=  6  Conv=0.59D-08     -V/T= 2.0088
 Calling FoFJK, ICntrl=      2127 FMM=F ISym2X=0 I1Cent= 0 IOpClX= 0 NMat=1 NMatS=1 NMatT=0.
 ***** Axes restored to original set *****
 -------------------------------------------------------------------
 Center     Atomic                   Forces (Hartrees/Bohr)
 Number     Number              X              Y              Z
 -------------------------------------------------------------------
      1        6          -0.000133525   -0.000127719   -0.000070220
      2        6           0.000242796    0.000647643    0.000220382
      3        1           0.000262798   -0.000285949    0.000007853
      4        1          -0.000081562    0.000062566    0.000069826
      5        1           0.000008217    0.000051853   -0.000097948
      6        6          -0.000181072   -0.000634825   -0.000183931
      7        1          -0.000057009   -0.000007749    0.000201489
      8        1          -0.000010033    0.000142332   -0.000186346
      9        6           0.000083720    0.000110077    0.000025502
     10        1           0.000026075   -0.000012297   -0.000116978
     11        1           0.000046296   -0.000135587    0.000126156
     12        1          -0.000275279    0.000290574    0.000002394
     13        1           0.000028617   -0.000050663    0.000079953
     14        1           0.000039961   -0.000050255   -0.000078131
 -------------------------------------------------------------------
 Cartesian Forces:  Max     0.000647643 RMS     0.000192989

 GradGradGradGradGradGradGradGradGradGradGradGradGradGradGradGradGradGrad
 Berny optimization.
 Using GEDIIS/GDIIS optimizer.
 FormGI is forming the generalized inverse of G from B-inverse, IUseBI=4.
 Internal  Forces:  Max     0.000372971 RMS     0.000138040
 Search for a local minimum.
 Step number   4 out of a maximum of   74 on scan point     1 out of    37
 All quantities printed in internal units (Hartrees-Bohrs-Radians)
 Mixed Optimization -- En-DIIS/RFO-DIIS
 Swapping is turned off.
 Update second derivatives using D2CorX and points    1    2    3    4
 DE= -8.05D-06 DEPred=-1.41D-05 R= 5.72D-01
 TightC=F SS=  1.41D+00  RLast= 1.57D-02 DXNew= 8.4853D-01 4.7182D-02
 Trust test= 5.72D-01 RLast= 1.57D-02 DXMaxT set to 5.05D-01
 ITU=  1  1  1  0
     Eigenvalues ---    0.00671   0.00677   0.01767   0.03846   0.05031
     Eigenvalues ---    0.05149   0.05785   0.05786   0.05787   0.05924
     Eigenvalues ---    0.08417   0.08565   0.10749   0.12264   0.15992
     Eigenvalues ---    0.16000   0.16000   0.16000   0.16048   0.17103
     Eigenvalues ---    0.21925   0.26211   0.30782   0.31347   0.31349
     Eigenvalues ---    0.31361   0.31508   0.31682   0.31806   0.31875
     Eigenvalues ---    0.31876   0.31877   0.31903   0.36245   0.45797
     Eigenvalues --- 1000.000001000.000001000.000001000.000001000.00000
     Eigenvalues --- 1000.000001000.000001000.000001000.000001000.00000
     Eigenvalues --- 1000.000001000.000001000.000001000.000001000.00000
     Eigenvalues --- 1000.000001000.000001000.000001000.000001000.00000
     Eigenvalues --- 1000.000001000.000001000.000001000.000001000.00000
     Eigenvalues --- 1000.000001000.000001000.000001000.00000
 En-DIIS/RFO-DIIS IScMMF=        0 using points:     4    3
 RFO step:  Lambda=-2.17463443D-06.
 DidBck=T Rises=F RFO-DIIS coefs:    0.70072    0.29928
 Iteration  1 RMS(Cart)=  0.00070420 RMS(Int)=  0.00000038
 Iteration  2 RMS(Cart)=  0.00000036 RMS(Int)=  0.00000023
 Iteration  1 RMS(Cart)=  0.00000035 RMS(Int)=  0.00000025
 Variable       Old X    -DE/DX   Delta X   Delta X   Delta X     New X
                                 (Linear)    (Quad)   (Total)
    R1        2.91229  -0.00006   0.00010  -0.00020  -0.00010   2.91219
    R2        2.05299  -0.00036  -0.00049  -0.00028  -0.00077   2.05221
    R3        2.05242  -0.00006  -0.00011  -0.00003  -0.00014   2.05228
    R4        2.05250  -0.00011  -0.00015  -0.00010  -0.00025   2.05225
    R5        2.91874   0.00036   0.00086  -0.00007   0.00079   2.91953
    R6        2.05739  -0.00018  -0.00012  -0.00031  -0.00043   2.05696
    R7        2.05723  -0.00008  -0.00008  -0.00012  -0.00021   2.05702
    R8        2.91243  -0.00012  -0.00001  -0.00024  -0.00024   2.91219
    R9        2.05722  -0.00010  -0.00004  -0.00020  -0.00024   2.05698
   R10        2.05716  -0.00005  -0.00006  -0.00008  -0.00013   2.05702
   R11        2.05301  -0.00037  -0.00050  -0.00029  -0.00079   2.05222
   R12        2.05245  -0.00008  -0.00012  -0.00007  -0.00019   2.05226
   R13        2.05245  -0.00007  -0.00013  -0.00005  -0.00017   2.05227
    A1        1.93170  -0.00026  -0.00161   0.00044  -0.00117   1.93053
    A2        1.93193   0.00019   0.00063   0.00030   0.00094   1.93287
    A3        1.93253   0.00006   0.00018   0.00012   0.00030   1.93284
    A4        1.88912   0.00002   0.00028  -0.00033  -0.00005   1.88906
    A5        1.88907   0.00006   0.00032  -0.00032  -0.00001   1.88906
    A6        1.88802  -0.00008   0.00024  -0.00025  -0.00001   1.88800
    A7        1.96361  -0.00037  -0.00078  -0.00022  -0.00100   1.96261
    A8        1.90789   0.00009  -0.00014   0.00002  -0.00012   1.90777
    A9        1.90737   0.00009   0.00039   0.00000   0.00039   1.90776
   A10        1.90644   0.00013   0.00035  -0.00006   0.00030   1.90674
   A11        1.90563   0.00020   0.00116  -0.00001   0.00115   1.90677
   A12        1.87059  -0.00013  -0.00100   0.00030  -0.00071   1.86989
   A13        1.96365  -0.00037  -0.00087  -0.00015  -0.00102   1.96262
   A14        1.90658   0.00011   0.00021  -0.00001   0.00020   1.90678
   A15        1.90558   0.00022   0.00084   0.00040   0.00124   1.90682
   A16        1.90783   0.00010  -0.00006   0.00001  -0.00005   1.90778
   A17        1.90760   0.00006   0.00010   0.00008   0.00018   1.90777
   A18        1.87028  -0.00011  -0.00018  -0.00034  -0.00052   1.86977
   A19        1.93175  -0.00027  -0.00165   0.00043  -0.00121   1.93053
   A20        1.93225   0.00011   0.00044   0.00012   0.00056   1.93281
   A21        1.93222   0.00013   0.00042   0.00022   0.00064   1.93286
   A22        1.88905   0.00005   0.00030  -0.00028   0.00002   1.88907
   A23        1.88906   0.00005   0.00030  -0.00030   0.00000   1.88906
   A24        1.88802  -0.00007   0.00021  -0.00022   0.00000   1.88802
    D1       -3.13924   0.00002   0.00090  -0.00123  -0.00033  -3.13956
    D2       -1.01806   0.00000   0.00074  -0.00144  -0.00070  -1.01876
    D3        1.02417  -0.00006  -0.00033  -0.00107  -0.00140   1.02278
    D4       -1.04467   0.00000   0.00061  -0.00116  -0.00055  -1.04522
    D5        1.07650  -0.00002   0.00044  -0.00136  -0.00092   1.07558
    D6        3.11873  -0.00008  -0.00062  -0.00099  -0.00162   3.11712
    D7        1.04905   0.00007   0.00144  -0.00119   0.00025   1.04930
    D8       -3.11296   0.00005   0.00128  -0.00140  -0.00012  -3.11308
    D9       -1.07072  -0.00001   0.00021  -0.00103  -0.00082  -1.07154
   D10        3.14155  -0.00001   0.00000   0.00000   0.00000   3.14155
   D11       -1.01959  -0.00005  -0.00051  -0.00010  -0.00061  -1.02020
   D12        1.02050   0.00000  -0.00013  -0.00028  -0.00041   1.02009
   D13        1.01955   0.00004   0.00045   0.00016   0.00061   1.02016
   D14       -3.14159   0.00000  -0.00006   0.00006   0.00000   3.14159
   D15       -1.10150   0.00005   0.00032  -0.00012   0.00019  -1.10131
   D16       -1.02086   0.00001   0.00079  -0.00015   0.00064  -1.02023
   D17        1.10118  -0.00003   0.00028  -0.00025   0.00003   1.10121
   D18        3.14127   0.00002   0.00066  -0.00044   0.00022   3.14150
   D19       -3.14115  -0.00004  -0.00035  -0.00015  -0.00050   3.14153
   D20       -1.04643  -0.00007  -0.00076  -0.00015  -0.00091  -1.04734
   D21        1.04731   0.00000   0.00007  -0.00020  -0.00013   1.04719
   D22        1.02070   0.00000   0.00000  -0.00003  -0.00003   1.02067
   D23        3.11542  -0.00004  -0.00041  -0.00003  -0.00044   3.11498
   D24       -1.07402   0.00003   0.00042  -0.00008   0.00034  -1.07368
   D25       -1.02126   0.00004   0.00020   0.00032   0.00052  -1.02074
   D26        1.07347   0.00001  -0.00021   0.00032   0.00011   1.07358
   D27       -3.11597   0.00008   0.00062   0.00027   0.00089  -3.11508
         Item               Value     Threshold  Converged?
 Maximum Force            0.000373     0.000450     YES
 RMS     Force            0.000139     0.000300     YES
 Maximum Displacement     0.002331     0.001800     NO 
 RMS     Displacement     0.000704     0.001200     YES
 Predicted change in Energy=-2.045513D-06
 GradGradGradGradGradGradGradGradGradGradGradGradGradGradGradGradGradGrad

                          Input orientation:                          
 ---------------------------------------------------------------------
 Center     Atomic      Atomic             Coordinates (Angstroms)
 Number     Number       Type             X           Y           Z
 ---------------------------------------------------------------------
      1          6           0       -1.195138   -0.153688    0.001275
      2          6           0        0.345904   -0.161990    0.002447
      3          1           0       -1.571954    0.864827    0.001248
      4          1           0       -1.581877   -0.659141   -0.878720
      5          1           0       -1.583182   -0.659572    0.880429
      6          6           0        0.928164   -1.593015   -0.000372
      7          1           0        0.709360    0.375013   -0.871823
      8          1           0        0.708011    0.371067    0.879730
      9          6           0        2.469207   -1.601338    0.000737
     10          1           0        0.564727   -2.130057    0.873894
     11          1           0        0.566002   -2.126142   -0.877591
[...]
           R2           1.08631   1.08619   1.08613   1.08614   1.08608
           R3           1.08611   1.08596   1.08586   1.08585   1.08586
           R4           1.08607   1.08614   1.08618   1.08625   1.08620
           R5           1.55767   1.55663   1.55421   1.55089   1.54782
           R6           1.08797   1.08801   1.08818   1.08838   1.08850
           R7           1.08786   1.08782   1.08788   1.08806   1.08825
           R8           1.54170   1.54162   1.54150   1.54142   1.54126
           R9           1.08777   1.08782   1.08789   1.08805   1.08825
           R10          1.08792   1.08801   1.08819   1.08836   1.08849
           R11          1.08614   1.08620   1.08618   1.08610   1.08605
           R12          1.08586   1.08596   1.08594   1.08578   1.08581
           R13          1.08607   1.08613   1.08621   1.08622   1.08617
           A1         110.58225 110.58260 110.58815 110.59216 110.60911
           A2         110.72640 110.60069 110.51569 110.50531 110.53622
           A3         110.75983 110.87448 110.95561 110.97322 110.93481
           A4         108.25665 108.27132 108.27848 108.27903 108.27037
           A5         108.22755 108.23129 108.22696 108.21292 108.21870
           A6         108.19366 108.18639 108.18169 108.18344 108.17650
           A7         112.98289 112.98484 112.86325 112.73756 112.58505
           A8         108.80162 108.45612 108.29192 108.34526 108.58448
           A9         108.85220 109.25600 109.60572 109.80357 109.81806
           A10        109.67263 109.50103 109.34361 109.18187 109.13461
           A11        109.61775 109.70808 109.73387 109.67985 109.53697
           A12        106.71470 106.73528 106.81102 106.91307 107.01927
           A13        112.99688 112.98416 112.86342 112.73554 112.58130
           A14        109.58641 109.70850 109.73857 109.68013 109.54476
           A15        109.67321 109.50063 109.34348 109.18403 109.13467
           A16        108.86834 109.25542 109.60324 109.80407 109.81780
           A17        108.78646 108.45771 108.29366 108.34234 108.58310
           A18        106.73095 106.73497 106.80671 106.91527 107.01677
           A19        110.58624 110.58177 110.58729 110.59475 110.61146
           A20        110.72584 110.60112 110.51703 110.50676 110.53663
           A21        110.74692 110.87390 110.95901 110.97171 110.93409
           A22        108.26058 108.27045 108.27694 108.27876 108.27000
           A23        108.23040 108.23285 108.22549 108.21230 108.21782
           A24        108.19679 108.18671 108.18064 108.18169 108.17563
           D1        -179.83959 179.58875 179.17644 178.90910 178.95764
           D2         -57.78814 -58.82136 -59.62598 -60.14062 -60.08473
           D3          58.14283  57.16396  56.54809  56.29348  56.62095
           D4         -59.84716 -60.48205 -60.93698 -61.20775 -61.13901
           D5          62.20429  61.10784  60.26060  59.74253  59.81861
           D6         178.13527 177.09317 176.43467 176.17662 176.52430
           D7          60.18261  59.53114  59.06743  58.80352  58.85882
           D8        -177.76594-178.87897-179.73499 179.75380 179.81644
           D9         -61.83496 -62.89365 -63.56092 -63.81210 -63.47787
           D10        119.99728 129.99745 139.99747 149.99754 159.99756
           D11       -118.40823-107.83168 -97.44547 -87.31810 -77.50476
           D12         -1.55456   8.99746  19.39654  29.52923  39.35931
           D13         -1.56406   8.99874  19.39877  29.52572  39.35517
           D14        120.03043 131.16961 141.95583 152.21009 161.85286
           D15       -123.11591-112.00126-101.20216 -90.94258 -81.28307
           D16       -118.41593-107.83077 -97.44582 -87.31755 -77.50746
           D17          3.17856  14.34011  25.11124  35.36682  44.99023
           D18        120.03222 131.16924 141.95325 152.21415 161.85430
           D19       -179.85693 179.58106 179.15096 178.91487 178.96747
           D20        -59.85734 -60.49108 -60.96406 -61.19971 -61.12784
           D21         60.16752  59.52241  59.04213  58.80934  58.86868
           D22         58.14459  57.15662  56.51823  56.29993  56.62356
           D23        178.14418 177.08448 176.40321 176.18535 176.52824
           D24        -61.83095 -62.90203 -63.59059 -63.80560 -63.47524
           D25        -57.80624 -58.82889 -59.65031 -60.13543 -60.07819
           D26         62.19336  61.09897  60.23467  59.74999  59.82650
           D27       -177.78178-178.88754-179.75914 179.75904 179.82302
                          36        37
     Eigenvalues --  -155.46630-155.46665
           R1           1.54113   1.54109
           R2           1.08606   1.08601
           R3           1.08594   1.08600
           R4           1.08610   1.08602
           R5           1.54569   1.54499
           R6           1.08854   1.08853
           R7           1.08846   1.08852
           R8           1.54111   1.54109
           R9           1.08844   1.08852
           R10          1.08856   1.08853
           R11          1.08598   1.08603
           R12          1.08585   1.08602
           R13          1.08608   1.08601
           A1         110.61155 110.60877
           A2         110.62592 110.74225
           A3         110.85338 110.74279
           A4         108.25559 108.23753
           A5         108.22833 108.23650
           A6         108.17056 108.17741
           A7         112.48249 112.45230
           A8         108.93514 109.30734
           A9         109.63021 109.31161
           A10        109.15904 109.24910
           A11        109.38984 109.24610
           A12        107.09530 107.13091
           A13        112.48629 112.44860
           A14        109.39044 109.24773
           A15        109.15619 109.25064
           A16        109.63411 109.31050
           A17        108.93024 109.30864
           A18        107.09447 107.13144
           A19        110.61672 110.60769
           A20        110.62417 110.74254
           A21        110.84802 110.74444
           A22        108.25478 108.23763
           A23        108.23079 108.23589
           A24        108.17093 108.17701
           D1         179.35391 179.99050
           D2         -59.48240 -58.49282
           D3          57.41016  58.47463
           D4         -60.70132 -60.01333
           D5          60.46237  61.50335
           D6         177.35493 178.47080
           D7          59.29478  59.99527
           D8        -179.54152-178.48805
           D9         -62.64897 -61.52059
           D10        169.99744 179.99723
           D11        -67.91462 -58.45227
           D12         48.96756  58.44707
           D13         48.96189  58.44735
           D14        171.04983 179.99784
           D15        -72.06799 -63.10282
           D16        -67.92258 -58.44956
           D17         54.16536  63.10094
           D18        171.04754 180.00028
           D19        179.36697-180.00393
           D20        -60.68706 -60.00815
           D21         59.30486  60.00123
           D22         57.41711  58.48136
           D23        177.36309 178.47714
           D24        -62.64500 -61.51348
           D25        -59.47384 -58.48684
           D26         60.47214  61.50895
           D27       -179.53595-178.48167
                          Input orientation:                          
 ---------------------------------------------------------------------
 Center     Atomic      Atomic             Coordinates (Angstroms)
 Number     Number       Type             X           Y           Z
 ---------------------------------------------------------------------
      1          6           0       -0.317406    0.845872    0.003702
      2          6           0       -0.110081   -0.681207    0.000919
      3          1           0       -1.376102    1.087905    0.003351
      4          1           0        0.133300    1.293609    0.884490
      5          1           0        0.134647    1.297013   -0.874676
      6          6           0        1.384195   -1.073804    0.001079
      7          1           0       -0.594334   -1.111754    0.875573
      8          1           0       -0.593229   -1.108486   -0.875932
      9          6           0        1.591422   -2.600900   -0.001635
     10          1           0        1.868415   -0.643281   -0.873599
     11          1           0        1.867421   -0.646561    0.877916
     12          1           0        2.650123   -2.842984   -0.001524
     13          1           0        1.139544   -3.051941    0.876888
     14          1           0        1.140498   -3.048718   -0.882289
 ---------------------------------------------------------------------
                    Distance matrix (angstroms):
                    1          2          3          4          5
     1  C    0.000000
     2  C    1.541092   0.000000
     3  H    1.086009   2.175447   0.000000
     4  H    1.085998   2.177116   1.759834   0.000000
     5  H    1.086015   2.177135   1.759836   1.759170   0.000000
     6  C    2.565271   1.544990   3.506028   2.819539   2.819414
     7  H    2.160821   1.088526   2.492073   2.513026   3.065444
     8  H    2.160868   1.088516   2.492020   3.065452   2.513212
     9  C    3.940037   2.565217   4.734290   4.251887   4.251838
    10  H    2.786584   2.163485   3.780600   3.138956   2.602056
    11  H    2.786589   2.163525   3.780698   2.602206   3.138720
    12  H    4.734334   3.505996   5.626935   4.922481   4.922356
    13  H    4.251836   2.819444   4.922384   4.460537   4.794914
    14  H    4.251858   2.819417   4.922325   4.794972   4.460624
                    6          7          8          9         10
     6  C    0.000000
     7  H    2.163506   0.000000
     8  H    2.163460   1.751509   0.000000
     9  C    1.541095   2.786500   2.786467   0.000000
    10  H    1.088522   3.056828   2.505217   2.160861   0.000000
    11  H    1.088525   2.505323   3.056822   2.160839   1.751518
    12  H    2.175449   3.780603   3.780530   1.086026   2.492042
    13  H    2.177136   2.602049   3.138774   1.086018   3.065469
    14  H    2.177157   3.138718   2.601989   1.086013   2.513178
                   11         12         13         14
    11  H    0.000000
    12  H    2.492050   0.000000
    13  H    2.513098   1.759864   0.000000
    14  H    3.065468   1.759841   1.759180   0.000000
 Stoichiometry    C4H10
 Framework group  C1[X(C4H10)]
 Deg. of freedom    36
 Full point group                 C1      NOp   1
 Largest Abelian subgroup         C1      NOp   1
 Largest concise Abelian subgroup C1      NOp   1
                         Standard orientation:                         
 ---------------------------------------------------------------------
 Center     Atomic      Atomic             Coordinates (Angstroms)
 Number     Number       Type             X           Y           Z
 ---------------------------------------------------------------------
      1          6           0        1.966065    0.124917   -0.000017
      2          6           0        0.568026   -0.523506    0.000022
      3          1           0        2.740543   -0.636397    0.000158
      4          1           0        2.101394    0.747209   -0.879694
      5          1           0        2.101318    0.747515    0.879476
      6          6           0       -0.568043    0.523557    0.000015
      7          1           0        0.467470   -1.162131   -0.875727
      8          1           0        0.467419   -1.162091    0.875782
      9          6           0       -1.966041   -0.124958   -0.000016
     10          1           0       -0.467488    1.162142    0.875788
     11          1           0       -0.467507    1.162188   -0.875731
     12          1           0       -2.740566    0.636333    0.000050
     13          1           0       -2.101304   -0.747354   -0.879653
     14          1           0       -2.101321   -0.747476    0.879527
 ---------------------------------------------------------------------
 Rotational constants (GHZ):     23.3185429      3.5958011      3.3737280

 **********************************************************************

            Population analysis using the SCF density.

 **********************************************************************

 Orbital symmetries:
       Occupied  (A) (A) (A) (A) (A) (A) (A) (A) (A) (A) (A) (A)
                 (A) (A) (A) (A) (A)
       Virtual   (A) (A) (A) (A) (A) (A) (A) (A) (A) (A) (A) (A)
                 (A)
 The electronic state is 1-A.
 Alpha  occ. eigenvalues --  -11.03849 -11.03819 -11.03167 -11.03165  -1.02748
 Alpha  occ. eigenvalues --   -0.94260  -0.82733  -0.75843  -0.61028  -0.55546
 Alpha  occ. eigenvalues --   -0.54184  -0.53947  -0.48528  -0.46958  -0.43287
 Alpha  occ. eigenvalues --   -0.43089  -0.41489
 Alpha virt. eigenvalues --    0.60125   0.61738   0.65210   0.68379   0.68722
 Alpha virt. eigenvalues --    0.73681   0.75070   0.76556   0.76767   0.76832
 Alpha virt. eigenvalues --    0.79784   0.80018   0.83152
          Condensed to atoms (all electrons):
               1          2          3          4          5          6
     1  C    4.731226   0.362343   0.384638   0.384328   0.384324  -0.020985
     2  C    0.362343   4.731896  -0.019630  -0.020531  -0.020531   0.362380
     3  H    0.384638  -0.019630   0.624347  -0.021934  -0.021935   0.001171
     4  H    0.384328  -0.020531  -0.021934   0.625831  -0.022190  -0.001945
     5  H    0.384324  -0.020531  -0.021935  -0.022190   0.625838  -0.001947
     6  C   -0.020985   0.362380   0.001171  -0.001945  -0.001947   4.731894
     7  H   -0.022226   0.383472  -0.002108  -0.002178   0.001851  -0.022392
     8  H   -0.022223   0.383475  -0.002109   0.001851  -0.002175  -0.022395
     9  C    0.000632  -0.020988  -0.000014   0.000006   0.000006   0.362342
    10  H   -0.001953  -0.022393   0.000007  -0.000001   0.000343   0.383474
    11  H   -0.001953  -0.022391   0.000007   0.000342  -0.000001   0.383473
    12  H   -0.000014   0.001172   0.000000   0.000000   0.000000  -0.019631
    13  H    0.000006  -0.001946   0.000000   0.000001   0.000000  -0.020531
    14  H    0.000006  -0.001946   0.000000   0.000000   0.000001  -0.020530
               7          8          9         10         11         12
     1  C   -0.022226  -0.022223   0.000632  -0.001953  -0.001953  -0.000014
     2  C    0.383472   0.383475  -0.020988  -0.022393  -0.022391   0.001172
     3  H   -0.002108  -0.002109  -0.000014   0.000007   0.000007   0.000000
     4  H   -0.002178   0.001851   0.000006  -0.000001   0.000342   0.000000
     5  H    0.001851  -0.002175   0.000006   0.000343  -0.000001   0.000000
     6  C   -0.022392  -0.022395   0.362342   0.383474   0.383473  -0.019631
     7  H    0.638442  -0.023966  -0.001954   0.001870  -0.002226   0.000007
     8  H   -0.023966   0.638436  -0.001954  -0.002227   0.001870   0.000007
     9  C   -0.001954  -0.001954   4.731227  -0.022223  -0.022225   0.384634
    10  H    0.001870  -0.002227  -0.022223   0.638437  -0.023966  -0.002108
    11  H   -0.002226   0.001870  -0.022225  -0.023966   0.638436  -0.002108
    12  H    0.000007   0.000007   0.384634  -0.002108  -0.002108   0.624356
    13  H    0.000342  -0.000001   0.384324   0.001851  -0.002177  -0.021933
    14  H   -0.000001   0.000342   0.384324  -0.002176   0.001851  -0.021935
              13         14
     1  C    0.000006   0.000006
     2  C   -0.001946  -0.001946
     3  H    0.000000   0.000000
     4  H    0.000001   0.000000
     5  H    0.000000   0.000001
     6  C   -0.020531  -0.020530
     7  H    0.000342  -0.000001
     8  H   -0.000001   0.000342
     9  C    0.384324   0.384324
    10  H    0.001851  -0.002176
    11  H   -0.002177   0.001851
    12  H   -0.021933  -0.021935
    13  H    0.625838  -0.022190
    14  H   -0.022190   0.625838
 Mulliken charges:
               1
     1  C   -0.178148
     2  C   -0.094380
     3  H    0.057559
     4  H    0.056420
     5  H    0.056416
     6  C   -0.094379
     7  H    0.051065
     8  H    0.051067
     9  C   -0.178138
    10  H    0.051067
    11  H    0.051066
    12  H    0.057554
    13  H    0.056415
    14  H    0.056415
 Sum of Mulliken charges =   0.00000
 Mulliken charges with hydrogens summed into heavy atoms:
               1
     1  C   -0.007753
     2  C    0.007752
     6  C    0.007754
     9  C   -0.007753
 Electronic spatial extent (au):  <R**2>=            423.8002
 Charge=              0.0000 electrons
 Dipole moment (field-independent basis, Debye):
    X=              0.0000    Y=              0.0000    Z=              0.0000  Tot=              0.0000
 Quadrupole moment (field-independent basis, Debye-Ang):
   XX=            -27.3396   YY=            -26.7874   ZZ=            -26.4546
   XY=             -0.1435   XZ=              0.0000   YZ=              0.0000
 Traceless Quadrupole moment (field-independent basis, Debye-Ang):
   XX=             -0.4790   YY=              0.0731   ZZ=              0.4059
   XY=             -0.1435   XZ=              0.0000   YZ=              0.0000
 Octapole moment (field-independent basis, Debye-Ang**2):
  XXX=              0.0002  YYY=              0.0000  ZZZ=             -0.0003  XYY=              0.0000
  XXY=             -0.0001  XXZ=              0.0001  XZZ=              0.0000  YZZ=              0.0000
  YYZ=              0.0002  XYZ=              0.0000
 Hexadecapole moment (field-independent basis, Debye-Ang**3):
 XXXX=           -423.9107 YYYY=            -78.4824 ZZZZ=            -48.7643 XXXY=             -5.2308
 XXXZ=             -0.0001 YYYX=             -0.4424 YYYZ=              0.0001 ZZZX=             -0.0004
 ZZZY=              0.0000 XXYY=            -81.2966 XXZZ=            -78.0167 YYZZ=            -19.1040
 XXYZ=             -0.0002 YYXZ=              0.0002 ZZXY=              1.7695
 N-N= 1.302415275249D+02 E-N=-6.211817583443D+02  KE= 1.541182552572D+02
 1\1\GINC-LEGION\Scan\RHF\STO-3G\C4H10\HIMANSHU\18-Feb-2025\0\\# opt=mo
 dredundant hf/sto-3g geom=connectivity\\Title Card Required\\0,1\C,-0.
 3174062484,0.8458724085,0.0037019648\C,-0.1100812835,-0.6812074478,0.0
 009194232\H,-1.376101589,1.0879048902,0.003351437\H,0.1333004419,1.293
 6092694,0.8844901626\H,0.1346473018,1.297013194,-0.8746762972\C,1.3841
 954848,-1.0738040465,0.0010791288\H,-0.5943337025,-1.1117537018,0.8755
 733149\H,-0.5932289501,-1.1084861958,-0.8759324207\C,1.5914223388,-2.6
 00899978,-0.0016346984\H,1.8684149927,-0.6432809572,-0.8735986353\H,1.
 8674209355,-0.6465610558,0.8779163053\H,2.6501229426,-2.8429839721,-0.
 0015243056\H,1.1395438445,-3.0519412177,0.8768881994\H,1.140498191,-3.
 0487176693,-0.8822885788\\Version=AM64L-G09RevD.01\State=1-A\HF=-155.4
 666462,-155.4662981,-155.4653371,-155.4640017,-155.4626391,-155.461621
 4,-155.4612372,-155.4615897,-155.4625428,-155.4637468,-155.4647625,-15
 5.4652778,-155.465181,-155.4644282,-155.4630642,-155.4613132,-155.4595
 526,-155.458224,-155.457723,-155.4582232,-155.4595518,-155.4613123,-15
 5.4630634,-155.4644275,-155.4651808,-155.4652779,-155.4647629,-155.463
 7475,-155.4625434,-155.4615899,-155.461237,-155.4616211,-155.4626384,-
 155.4640011,-155.4653365,-155.4662977,-155.4666462\RMSD=2.184e-09,9.77
 6e-09,2.234e-09,2.481e-09,3.042e-09,5.554e-09,3.988e-09,3.962e-09,4.23
 3e-09,2.714e-09,2.633e-09,8.385e-09,5.414e-09,7.582e-09,2.057e-09,2.31
 1e-09,1.887e-09,1.929e-09,8.206e-09,2.210e-09,1.505e-09,9.157e-09,3.02
 0e-09,1.606e-09,3.855e-09,5.652e-09,3.077e-09,6.859e-09,2.655e-09,3.00
 3e-09,2.891e-09,9.844e-09,2.268e-09,1.691e-09,1.988e-09,2.032e-09,7.26
 1e-09\PG=C01 [X(C4H10)]\\@


 MOM AND DAD WENT TO ALPHA CENTAURI AND ALL
 I GOT WAS THIS DUMB T-SHIRT.
 Job cpu time:       0 days  0 hours  7 minutes  2.3 seconds.
 File lengths (MBytes):  RWF=      9 Int=      0 D2E=      0 Chk=      5 Scr=      1
 Normal termination of Gaussian 09 at Tue Feb 18 00:11:05 2025.
