 Entering Gaussian System, Link 0=g09
 Input=/home/himanshu/git/molecular-modeling/a1/q1/r3/methyl_alcohol.com
 Output=/home/himanshu/git/molecular-modeling/a1/q1/r3/methyl_alcohol.log
 Initial command:
 /home/himanshu/work/Gview_and_Gaussian/g09/l1.exe "/home/himanshu/work/Gview_and_Gaussian/g09/scratch/Gau-62700.inp" -scrdir="/home/himanshu/work/Gview_and_Gaussian/g09/scratch/"
 Entering Link 1 = /home/himanshu/work/Gview_and_Gaussian/g09/l1.exe PID=     62702.
  
 Copyright (c) 1988,1990,1992,1993,1995,1998,2003,2009,2013,
            Gaussian, Inc.  All Rights Reserved.
  
 This is part of the Gaussian(R) 09 program.  It is based on
 the Gaussian(R) 03 system (copyright 2003, Gaussian, Inc.),
 the Gaussian(R) 98 system (copyright 1998, Gaussian, Inc.),
 the Gaussian(R) 94 system (copyright 1995, Gaussian, Inc.),
 the Gaussian 92(TM) system (copyright 1992, Gaussian, Inc.),
 the Gaussian 90(TM) system (copyright 1990, Gaussian, Inc.),
 the Gaussian 88(TM) system (copyright 1988, Gaussian, Inc.),
 the Gaussian 86(TM) system (copyright 1986, Carnegie Mellon
 University), and the Gaussian 82(TM) system (copyright 1983,
 Carnegie Mellon University). Gaussian is a federally registered
 trademark of Gaussian, Inc.
  
 This software contains proprietary and confidential information,
 including trade secrets, belonging to Gaussian, Inc.
  
 This software is provided under written license and may be
 used, copied, transmitted, or stored only in accord with that
 written license.
  
 The following legend is applicable only to US Government
 contracts under FAR:
  
                    RESTRICTED RIGHTS LEGEND
  
 Use, reproduction and disclosure by the US Government is
 subject to restrictions as set forth in subparagraphs (a)
 and (c) of the Commercial Computer Software - Restricted
 Rights clause in FAR 52.227-19.
  
 Gaussian, Inc.
 340 Quinnipiac St., Bldg. 40, Wallingford CT 06492
  
  
 ---------------------------------------------------------------
 Warning -- This program may not be used in any manner that
 competes with the business of Gaussian, Inc. or will provide
 assistance to any competitor of Gaussian, Inc.  The licensee
 of this program is prohibited from giving any competitor of
 Gaussian, Inc. access to this program.  By using this program,
 the user acknowledges that Gaussian, Inc. is engaged in the
 business of creating and licensing software in the field of
 computational chemistry and represents and warrants to the
 licensee that it is not a competitor of Gaussian, Inc. and that
 it will not use this program in any manner prohibited above.
 ---------------------------------------------------------------
  

 Cite this work as:
 Gaussian 09, Revision D.01,
 M. J. Frisch, G. W. Trucks, H. B. Schlegel, G. E. Scuseria, 
 M. A. Robb, J. R. Cheeseman, G. Scalmani, V. Barone, B. Mennucci, 
 G. A. Petersson, H. Nakatsuji, M. Caricato, X. Li, H. P. Hratchian, 
 A. F. Izmaylov, J. Bloino, G. Zheng, J. L. Sonnenberg, M. Hada, 
 M. Ehara, K. Toyota, R. Fukuda, J. Hasegawa, M. Ishida, T. Nakajima, 
 Y. Honda, O. Kitao, H. Nakai, T. Vreven, J. A. Montgomery, Jr., 
 J. E. Peralta, F. Ogliaro, M. Bearpark, J. J. Heyd, E. Brothers, 
 K. N. Kudin, V. N. Staroverov, T. Keith, R. Kobayashi, J. Normand, 
 K. Raghavachari, A. Rendell, J. C. Burant, S. S. Iyengar, J. Tomasi, 
 M. Cossi, N. Rega, J. M. Millam, M. Klene, J. E. Knox, J. B. Cross, 
 V. Bakken, C. Adamo, J. Jaramillo, R. Gomperts, R. E. Stratmann, 
 O. Yazyev, A. J. Austin, R. Cammi, C. Pomelli, J. W. Ochterski, 
 R. L. Martin, K. Morokuma, V. G. Zakrzewski, G. A. Voth, 
 P. Salvador, J. J. Dannenberg, S. Dapprich, A. D. Daniels, 
 O. Farkas, J. B. Foresman, J. V. Ortiz, J. Cioslowski, 
 and D. J. Fox, Gaussian, Inc., Wallingford CT, 2013.
 
 ******************************************
 Gaussian 09:  AM64L-G09RevD.01 24-Apr-2013
                17-Feb-2025 
 ******************************************
 %chk=methyl_alcohol.chk
 -----------------------------
 # hf/sto-3g geom=connectivity
 -----------------------------
 1/38=1,57=2/1;
 2/12=2,17=6,18=5,40=1/2;
 3/6=3,11=9,16=1,25=1,30=1/1,2,3;
 4//1;
 5/5=2,38=5/2;
 6/7=2,8=2,9=2,10=2,28=1/1;
 99/5=1,9=1/99;
 -------------------
 Title Card Required
 -------------------
 Symbolic Z-matrix:
 Charge =  0 Multiplicity = 1
 C                    -0.6667   -0.01691  0. 
 H                    -1.09958   0.98499  -0.00016 
 H                    -1.03229  -0.54538   0.88666 
 H                    -1.03253  -0.54578  -0.88636 
 O                     0.75906   0.12679  -0.00002 
 H                     1.09215  -0.80666   0.00002 
 
                          Input orientation:                          
 ---------------------------------------------------------------------
 Center     Atomic      Atomic             Coordinates (Angstroms)
 Number     Number       Type             X           Y           Z
 ---------------------------------------------------------------------
      1          6           0       -0.666705   -0.016910   -0.000003
      2          1           0       -1.099581    0.984985   -0.000157
      3          1           0       -1.032292   -0.545381    0.886658
      4          1           0       -1.032527   -0.545776   -0.886361
      5          8           0        0.759060    0.126787   -0.000018
      6          1           0        1.092154   -0.806664    0.000019
 ---------------------------------------------------------------------
                    Distance matrix (angstroms):
                    1          2          3          4          5
     1  C    0.000000
     2  H    1.091410   0.000000
     3  H    1.095036   1.770025   0.000000
     4  H    1.095059   1.770051   1.773019   0.000000
     5  O    1.432988   2.047206   2.108778   2.108963   0.000000
     6  H    1.928029   2.830850   2.316823   2.316894   0.991101
                    6
     6  H    0.000000
 Stoichiometry    CH4O
 Framework group  C1[X(CH4O)]
 Deg. of freedom    12
 Full point group                 C1      NOp   1
 Largest Abelian subgroup         C1      NOp   1
 Largest concise Abelian subgroup C1      NOp   1
                         Standard orientation:                         
 ---------------------------------------------------------------------
 Center     Atomic      Atomic             Coordinates (Angstroms)
 Number     Number       Type             X           Y           Z
 ---------------------------------------------------------------------
      1          6           0       -0.666705   -0.016910   -0.000003
      2          1           0       -1.099581    0.984985   -0.000157
      3          1           0       -1.032292   -0.545381    0.886658
      4          1           0       -1.032527   -0.545776   -0.886361
      5          8           0        0.759060    0.126787   -0.000018
      6          1           0        1.092154   -0.806664    0.000019
 ---------------------------------------------------------------------
 Rotational constants (GHZ):    125.8233242     24.5240315     23.5543344
 Standard basis: STO-3G (5D, 7F)
 There are    14 symmetry adapted cartesian basis functions of A   symmetry.
 There are    14 symmetry adapted basis functions of A   symmetry.
    14 basis functions,    42 primitive gaussians,    14 cartesian basis functions
     9 alpha electrons        9 beta electrons
       nuclear repulsion energy        39.9747621780 Hartrees.
 NAtoms=    6 NActive=    6 NUniq=    6 SFac= 1.00D+00 NAtFMM=   60 NAOKFM=F Big=F
 Integral buffers will be    131072 words long.
 Raffenetti 1 integral format.
 Two-electron integral symmetry is turned on.
 One-electron integrals computed using PRISM.
 NBasis=    14 RedAO= T EigKep=  2.33D-01  NBF=    14
 NBsUse=    14 1.00D-06 EigRej= -1.00D+00 NBFU=    14
 ExpMin= 1.69D-01 ExpMax= 1.31D+02 ExpMxC= 1.31D+02 IAcc=1 IRadAn=         1 AccDes= 0.00D+00
 Harris functional with IExCor=  205 and IRadAn=       1 diagonalized for initial guess.
 HarFok:  IExCor=  205 AccDes= 0.00D+00 IRadAn=         1 IDoV= 1 UseB2=F ITyADJ=14
 ICtDFT=  3500011 ScaDFX=  1.000000  1.000000  1.000000  1.000000
 FoFCou: FMM=F IPFlag=           0 FMFlag=      100000 FMFlg1=           0
         NFxFlg=           0 DoJE=T BraDBF=F KetDBF=T FulRan=T
         wScrn=  0.000000 ICntrl=     500 IOpCl=  0 I1Cent=   200000004 NGrid=           0
         NMat0=    1 NMatS0=      1 NMatT0=    0 NMatD0=    1 NMtDS0=    0 NMtDT0=    0
 Petite list used in FoFCou.
 Keep R1 ints in memory in canonical form, NReq=831498.
 Requested convergence on RMS density matrix=1.00D-08 within 128 cycles.
 Requested convergence on MAX density matrix=1.00D-06.
 Requested convergence on             energy=1.00D-06.
 No special actions if energy rises.
 SCF Done:  E(RHF) =  -113.549193230     A.U. after    9 cycles
            NFock=  9  Conv=0.61D-08     -V/T= 2.0083

 **********************************************************************

            Population analysis using the SCF density.

 **********************************************************************

 Orbital symmetries:
       Occupied  (A) (A) (A) (A) (A) (A) (A) (A) (A)
       Virtual   (A) (A) (A) (A) (A)
 The electronic state is 1-A.
 Alpha  occ. eigenvalues --  -20.26331 -11.08581  -1.27850  -0.87697  -0.61095
 Alpha  occ. eigenvalues --   -0.57130  -0.51708  -0.41869  -0.35944
 Alpha virt. eigenvalues --    0.57288   0.65060   0.69698   0.72323   0.73451
          Condensed to atoms (all electrons):
               1          2          3          4          5          6
     1  C    4.718051   0.379359   0.376212   0.376209   0.263472  -0.041824
     2  H    0.379359   0.610228  -0.022501  -0.022502  -0.017863   0.003651
     3  H    0.376212  -0.022501   0.636431  -0.026147  -0.014532  -0.003464
     4  H    0.376209  -0.022502  -0.026147   0.636423  -0.014520  -0.003466
     5  O    0.263472  -0.017863  -0.014532  -0.014520   7.811101   0.252497
     6  H   -0.041824   0.003651  -0.003464  -0.003466   0.252497   0.618607
 Mulliken charges:
               1
     1  C   -0.071479
     2  H    0.069629
     3  H    0.054001
     4  H    0.054004
     5  O   -0.280155
     6  H    0.174000
 Sum of Mulliken charges =   0.00000
 Mulliken charges with hydrogens summed into heavy atoms:
               1
     1  C    0.106155
     5  O   -0.106155
 Electronic spatial extent (au):  <R**2>=             82.8854
 Charge=              0.0000 electrons
 Dipole moment (field-independent basis, Debye):
    X=             -0.7375    Y=             -1.3168    Z=              0.0000  Tot=              1.5092
 Quadrupole moment (field-independent basis, Debye-Ang):
   XX=            -12.2269   YY=            -11.3343   ZZ=            -12.3763
   XY=             -1.5502   XZ=              0.0002   YZ=              0.0000
 Traceless Quadrupole moment (field-independent basis, Debye-Ang):
   XX=             -0.2477   YY=              0.6448   ZZ=             -0.3971
   XY=             -1.5502   XZ=              0.0002   YZ=              0.0000
 Octapole moment (field-independent basis, Debye-Ang**2):
  XXX=              4.9984  YYY=              0.1670  ZZZ=              0.0002  XYY=              1.8864
  XXY=             -1.2488  XXZ=             -0.0002  XZZ=              1.0829  YZZ=             -0.3260
  YYZ=             -0.0003  XYZ=             -0.0001
 Hexadecapole moment (field-independent basis, Debye-Ang**3):
 XXXX=            -56.3939 YYYY=            -17.3587 ZZZZ=            -15.4377 XXXY=             -1.5561
 XXXZ=              0.0004 YYYX=             -1.2331 YYYZ=              0.0001 ZZZX=             -0.0003
 ZZZY=             -0.0001 XXYY=            -11.2941 XXZZ=            -11.9959 YYZZ=             -5.5489
 XXYZ=              0.0002 YYXZ=              0.0004 ZZXY=              0.5112
 N-N= 3.997476217799D+01 E-N=-3.476941087935D+02  KE= 1.126102941733D+02
 1\1\GINC-LEGION\SP\RHF\STO-3G\C1H4O1\HIMANSHU\17-Feb-2025\0\\# hf/sto-
 3g geom=connectivity\\Title Card Required\\0,1\C,0,-0.66670495,-0.0169
 0964,-0.00000318\H,0,-1.09958148,0.98498502,-0.00015694\H,0,-1.0322924
 3,-0.545381,0.88665839\H,0,-1.03252675,-0.54577564,-0.88636085\O,0,0.7
 590596,0.1267867,-0.00001758\H,0,1.09215359,-0.8066641,0.00001913\\Ver
 sion=AM64L-G09RevD.01\State=1-A\HF=-113.5491932\RMSD=6.145e-09\Dipole=
 -0.2901468,-0.5180648,0.0000082\Quadrupole=-0.1841887,0.4794245,-0.295
 2358,-1.1525678,0.0001454,0.0000117\PG=C01 [X(C1H4O1)]\\@


      HUMANKIND PERIODICALLY GOES THROUGH A SPEEDUP OF ITS AFFAIRS, 
      THEREBY EXPERIENCING THE RACE BETWEEN THE RENEWABLE VITALITY
      OF THE LIVING, AND THE BECKONING VITIATION OF DECADENCE.
      IN THIS PERIODIC RACE, ANY PAUSE BECOMES A LUXURY.
      ONLY THEN CAN ONE REFLECT THAT ALL IS PERMITTED;
      ALL IS POSSIBLE.

                              -- THE APOCRYPHA OF MUAD'DIB
                                 CHILDREN OF DUNE, BY FRANK HERBERT
 Job cpu time:       0 days  0 hours  0 minutes  0.7 seconds.
 File lengths (MBytes):  RWF=      5 Int=      0 D2E=      0 Chk=      1 Scr=      1
 Normal termination of Gaussian 09 at Mon Feb 17 22:20:50 2025.
