 Entering Gaussian System, Link 0=g09
 Input=/home/himanshu/git/molecular-modeling/a1/q1/r3/transition_state.com
 Output=/home/himanshu/git/molecular-modeling/a1/q1/r3/transition_state.log
 Initial command:
 /home/himanshu/work/Gview_and_Gaussian/g09/l1.exe "/home/himanshu/work/Gview_and_Gaussian/g09/scratch/Gau-86160.inp" -scrdir="/home/himanshu/work/Gview_and_Gaussian/g09/scratch/"
 Entering Link 1 = /home/himanshu/work/Gview_and_Gaussian/g09/l1.exe PID=     86162.
  
 Copyright (c) 1988,1990,1992,1993,1995,1998,2003,2009,2013,
            Gaussian, Inc.  All Rights Reserved.
  
 This is part of the Gaussian(R) 09 program.  It is based on
 the Gaussian(R) 03 system (copyright 2003, Gaussian, Inc.),
 the Gaussian(R) 98 system (copyright 1998, Gaussian, Inc.),
 the Gaussian(R) 94 system (copyright 1995, Gaussian, Inc.),
 the Gaussian 92(TM) system (copyright 1992, Gaussian, Inc.),
 the Gaussian 90(TM) system (copyright 1990, Gaussian, Inc.),
 the Gaussian 88(TM) system (copyright 1988, Gaussian, Inc.),
 the Gaussian 86(TM) system (copyright 1986, Carnegie Mellon
 University), and the Gaussian 82(TM) system (copyright 1983,
 Carnegie Mellon University). Gaussian is a federally registered
 trademark of Gaussian, Inc.
  
 This software contains proprietary and confidential information,
 including trade secrets, belonging to Gaussian, Inc.
  
 This software is provided under written license and may be
 used, copied, transmitted, or stored only in accord with that
 written license.
  
 The following legend is applicable only to US Government
 contracts under FAR:
  
                    RESTRICTED RIGHTS LEGEND
  
 Use, reproduction and disclosure by the US Government is
 subject to restrictions as set forth in subparagraphs (a)
 and (c) of the Commercial Computer Software - Restricted
 Rights clause in FAR 52.227-19.
  
 Gaussian, Inc.
 340 Quinnipiac St., Bldg. 40, Wallingford CT 06492
  
  
 ---------------------------------------------------------------
 Warning -- This program may not be used in any manner that
 competes with the business of Gaussian, Inc. or will provide
 assistance to any competitor of Gaussian, Inc.  The licensee
 of this program is prohibited from giving any competitor of
 Gaussian, Inc. access to this program.  By using this program,
 the user acknowledges that Gaussian, Inc. is engaged in the
 business of creating and licensing software in the field of
 computational chemistry and represents and warrants to the
 licensee that it is not a competitor of Gaussian, Inc. and that
 it will not use this program in any manner prohibited above.
 ---------------------------------------------------------------
  

 Cite this work as:
 Gaussian 09, Revision D.01,
 M. J. Frisch, G. W. Trucks, H. B. Schlegel, G. E. Scuseria, 
 M. A. Robb, J. R. Cheeseman, G. Scalmani, V. Barone, B. Mennucci, 
 G. A. Petersson, H. Nakatsuji, M. Caricato, X. Li, H. P. Hratchian, 
 A. F. Izmaylov, J. Bloino, G. Zheng, J. L. Sonnenberg, M. Hada, 
 M. Ehara, K. Toyota, R. Fukuda, J. Hasegawa, M. Ishida, T. Nakajima, 
 Y. Honda, O. Kitao, H. Nakai, T. Vreven, J. A. Montgomery, Jr., 
 J. E. Peralta, F. Ogliaro, M. Bearpark, J. J. Heyd, E. Brothers, 
 K. N. Kudin, V. N. Staroverov, T. Keith, R. Kobayashi, J. Normand, 
 K. Raghavachari, A. Rendell, J. C. Burant, S. S. Iyengar, J. Tomasi, 
 M. Cossi, N. Rega, J. M. Millam, M. Klene, J. E. Knox, J. B. Cross, 
 V. Bakken, C. Adamo, J. Jaramillo, R. Gomperts, R. E. Stratmann, 
 O. Yazyev, A. J. Austin, R. Cammi, C. Pomelli, J. W. Ochterski, 
 R. L. Martin, K. Morokuma, V. G. Zakrzewski, G. A. Voth, 
 P. Salvador, J. J. Dannenberg, S. Dapprich, A. D. Daniels, 
 O. Farkas, J. B. Foresman, J. V. Ortiz, J. Cioslowski, 
 and D. J. Fox, Gaussian, Inc., Wallingford CT, 2013.
 
 ******************************************
 Gaussian 09:  AM64L-G09RevD.01 24-Apr-2013
                17-Feb-2025 
 ******************************************
 %chk=transition_state.chk
 -----------------------------
 # hf/sto-3g geom=connectivity
 -----------------------------
 1/38=1,57=2/1;
 2/12=2,17=6,18=5,40=1/2;
 3/6=3,11=9,16=1,25=1,30=1/1,2,3;
 4//1;
 5/5=2,38=5/2;
 6/7=2,8=2,9=2,10=2,28=1/1;
 99/5=1,9=1/99;
 -------------------
 Title Card Required
 -------------------
 Symbolic Z-matrix:
 Charge = -1 Multiplicity = 1
 C                     0.19878   0.44767  -0.97328 
 H                    -0.13838  -0.5677   -0.98885 
 H                    -0.06908   1.11677  -0.18243 
 H                     0.79228   0.76657  -1.80452 
 I                    -1.27418   1.29406  -2.20779 
 O                     1.51042  -0.30603   0.12601 
 H                     3.18145  -1.06011  -0.50849 
 
                          Input orientation:                          
 ---------------------------------------------------------------------
 Center     Atomic      Atomic             Coordinates (Angstroms)
 Number     Number       Type             X           Y           Z
 ---------------------------------------------------------------------
      1          6           0        0.198779    0.447670   -0.973282
      2          1           0       -0.138382   -0.567702   -0.988850
      3          1           0       -0.069078    1.116773   -0.182426
      4          1           0        0.792282    0.766566   -1.804522
      5         53           0       -1.274182    1.294065   -2.207786
      6          8           0        1.510416   -0.306025    0.126015
      7          1           0        3.181449   -1.060113   -0.508493
 ---------------------------------------------------------------------
                    Distance matrix (angstroms):
                    1          2          3          4          5
     1  C    0.000000
     2  H    1.070000   0.000000
     3  H    1.070000   1.868844   0.000000
     4  H    1.070000   1.819815   1.869701   0.000000
     5  I    2.100000   2.498404   2.363428   2.170518   0.000000
     6  O    1.870000   2.007469   2.148090   2.322314   3.970000
     7  H    3.374279   3.390352   3.925695   3.274839   5.318120
                    6          7
     6  O    0.000000
     7  H    1.940000   0.000000
 Stoichiometry    CH4IO(1-)
 Framework group  C1[X(CH4IO)]
 Deg. of freedom    15
 Full point group                 C1      NOp   1
 Largest Abelian subgroup         C1      NOp   1
 Largest concise Abelian subgroup C1      NOp   1
                         Standard orientation:                         
 ---------------------------------------------------------------------
 Center     Atomic      Atomic             Coordinates (Angstroms)
 Number     Number       Type             X           Y           Z
 ---------------------------------------------------------------------
      1          6           0       -1.312941   -0.084427   -0.000682
      2          1           0       -1.479545   -0.039577    1.055316
      3          1           0       -1.276419   -1.016541   -0.524829
      4          1           0       -1.155068    0.849043   -0.499288
      5         53           0        0.784774    0.013518    0.000770
      6          8           0       -3.180905   -0.171646   -0.001974
      7          1           0       -4.357080    1.370333   -0.052130
 ---------------------------------------------------------------------
 Rotational constants (GHZ):     87.6561275      1.7859817      1.7706058
 Standard basis: STO-3G (5D, 7F)
 There are    43 symmetry adapted cartesian basis functions of A   symmetry.
 There are    41 symmetry adapted basis functions of A   symmetry.
    41 basis functions,   129 primitive gaussians,    43 cartesian basis functions
    36 alpha electrons       36 beta electrons
       nuclear repulsion energy       210.7573479646 Hartrees.
 NAtoms=    7 NActive=    7 NUniq=    7 SFac= 1.00D+00 NAtFMM=   60 NAOKFM=F Big=F
 Integral buffers will be    131072 words long.
 Raffenetti 1 integral format.
 Two-electron integral symmetry is turned on.
 One-electron integrals computed using PRISM.
 NBasis=    41 RedAO= T EigKep=  2.41D-01  NBF=    41
 NBsUse=    41 1.00D-06 EigRej= -1.00D+00 NBFU=    41
 ExpMin= 1.69D-01 ExpMax= 6.04D+03 ExpMxC= 6.04D+03 IAcc=1 IRadAn=         1 AccDes= 0.00D+00
 Harris functional with IExCor=  205 and IRadAn=       1 diagonalized for initial guess.
 HarFok:  IExCor=  205 AccDes= 0.00D+00 IRadAn=         1 IDoV= 1 UseB2=F ITyADJ=14
 ICtDFT=  3500011 ScaDFX=  1.000000  1.000000  1.000000  1.000000
 Defaulting to unpruned grid for atomic number  53.
 FoFCou: FMM=F IPFlag=           0 FMFlag=      100000 FMFlg1=           0
         NFxFlg=           0 DoJE=T BraDBF=F KetDBF=T FulRan=T
         wScrn=  0.000000 ICntrl=     500 IOpCl=  0 I1Cent=   200000004 NGrid=           0
         NMat0=    1 NMatS0=      1 NMatT0=    0 NMatD0=    1 NMtDS0=    0 NMtDT0=    0
 Petite list used in FoFCou.
 Keep R1 ints in memory in canonical form, NReq=1231459.
 Requested convergence on RMS density matrix=1.00D-08 within 128 cycles.
 Requested convergence on MAX density matrix=1.00D-06.
 Requested convergence on             energy=1.00D-06.
 No special actions if energy rises.
 SCF Done:  E(RHF) =  -6963.70894514     A.U. after   16 cycles
            NFock= 16  Conv=0.13D-08     -V/T= 1.9996

 **********************************************************************

            Population analysis using the SCF density.

 **********************************************************************

 Orbital symmetries:
       Occupied  (A) (A) (A) (A) (A) (A) (A) (A) (A) (A) (A) (A)
                 (A) (A) (A) (A) (A) (A) (A) (A) (A) (A) (A) (A)
                 (A) (A) (A) (A) (A) (A) (A) (A) (A) (A) (A) (A)
       Virtual   (A) (A) (A) (A) (A)
 The electronic state is 1-A.
 Alpha  occ. eigenvalues -- **********-176.91116-168.19307-168.19258-168.19257
 Alpha  occ. eigenvalues --  -35.36136 -32.29821 -32.29548 -32.29543 -23.11400
 Alpha  occ. eigenvalues --  -23.11337 -23.11335 -23.11116 -23.11116 -19.87679
 Alpha  occ. eigenvalues --  -10.91656  -6.31384  -4.92266  -4.91109  -4.91085
 Alpha  occ. eigenvalues --   -1.72802  -1.72323  -1.72296  -1.71327  -1.71326
 Alpha  occ. eigenvalues --   -0.85865  -0.75386  -0.45166  -0.43580  -0.41145
 Alpha  occ. eigenvalues --   -0.19842  -0.08971  -0.08142  -0.06468  -0.00172
 Alpha  occ. eigenvalues --    0.07332
 Alpha virt. eigenvalues --    0.47656   0.61745   0.81083   0.89205   0.91989
          Condensed to atoms (all electrons):
               1          2          3          4          5          6
     1  C    4.802418   0.405305   0.406362   0.415727   0.074119   0.052330
     2  H    0.405305   0.582519  -0.013045  -0.013213  -0.043971  -0.019522
     3  H    0.406362  -0.013045   0.597133  -0.011604  -0.057212  -0.011909
     4  H    0.415727  -0.013213  -0.011604   0.599410  -0.084085  -0.011972
     5  I    0.074119  -0.043971  -0.057212  -0.084085  53.496025   0.001899
     6  O    0.052330  -0.019522  -0.011909  -0.011972   0.001899   8.193337
     7  H   -0.001604   0.000562   0.000226   0.000337  -0.000042   0.065754
               7
     1  C   -0.001604
     2  H    0.000562
     3  H    0.000226
     4  H    0.000337
     5  I   -0.000042
     6  O    0.065754
     7  H    1.420273
 Mulliken charges:
               1
     1  C   -0.154657
     2  H    0.101365
     3  H    0.090048
     4  H    0.105400
     5  I   -0.386734
     6  O   -0.269916
     7  H   -0.485506
 Sum of Mulliken charges =  -1.00000
 Mulliken charges with hydrogens summed into heavy atoms:
               1
     1  C    0.142156
     5  I   -0.386734
     6  O   -0.755422
 Electronic spatial extent (au):  <R**2>=            682.7028
 Charge=             -1.0000 electrons
 Dipole moment (field-independent basis, Debye):
    X=             10.6451    Y=             -2.6832    Z=              0.1425  Tot=             10.9790
 Quadrupole moment (field-independent basis, Debye-Ang):
   XX=            -97.1481   YY=            -43.2595   ZZ=            -39.9404
   XY=             11.3544   XZ=             -0.7885   YZ=              0.1598
 Traceless Quadrupole moment (field-independent basis, Debye-Ang):
   XX=            -37.0321   YY=             16.8565   ZZ=             20.1756
   XY=             11.3544   XZ=             -0.7885   YZ=              0.1598
 Octapole moment (field-independent basis, Debye-Ang**2):
  XXX=            248.8161  YYY=             -8.0513  ZZZ=              0.8569  XYY=             23.4285
  XXY=            -50.0156  XXZ=              2.6662  XZZ=              7.5246  YZZ=             -0.7612
  YYZ=             -0.4148  XYZ=             -0.6755
 Hexadecapole moment (field-independent basis, Debye-Ang**3):
 XXXX=          -1550.6502 YYYY=            -66.1760 ZZZZ=            -43.8624 XXXY=            229.1095
 XXXZ=            -10.4263 YYYX=             35.9525 YYYZ=              0.5435 ZZZX=             -1.5286
 ZZZY=              0.1198 XXYY=           -188.7828 XXZZ=           -115.0583 YYZZ=            -17.2097
 XXYZ=              2.7728 YYXZ=             -0.3586 ZZXY=              3.8749
 N-N= 2.107573479646D+02 E-N=-1.700133010248D+04  KE= 6.966793432674D+03
 1\1\GINC-LEGION\SP\RHF\STO-3G\C1H4I1O1(1-)\HIMANSHU\17-Feb-2025\0\\# h
 f/sto-3g geom=connectivity\\Title Card Required\\-1,1\C,0,0.19877931,0
 .44766975,-0.97328208\H,0,-0.13838154,-0.5677022,-0.98885003\H,0,-0.06
 907841,1.11677279,-0.18242598\H,0,0.79228155,0.76656607,-1.80452226\I,
 0,-1.27418176,1.29406493,-2.20778638\O,0,1.51041608,-0.306025,0.126014
 61\H,0,3.18144938,-1.06011256,-0.50849279\\Version=AM64L-G09RevD.01\St
 ate=1-A\HF=-6963.7089451\RMSD=1.318e-09\Dipole=-3.6095838,1.8959622,-1
 .4261778\Quadrupole=-14.8248547,6.6842312,8.1406235,15.7543383,-13.329
 4262,7.1017619\PG=C01 [X(C1H4I1O1)]\\@


 You don't have to suffer to be a poet.
 Adolescence is enough suffering for anyone.
                             -- John Ciardi
 Job cpu time:       0 days  0 hours  0 minutes  1.2 seconds.
 File lengths (MBytes):  RWF=      5 Int=      0 D2E=      0 Chk=      1 Scr=      1
 Normal termination of Gaussian 09 at Mon Feb 17 23:02:55 2025.
