 Entering Gaussian System, Link 0=g09
 Input=/home/himanshu/git/molecular-modeling/a1/q3/chair_cyclohexane.com
 Output=/home/himanshu/git/molecular-modeling/a1/q3/chair_cyclohexane.log
 Initial command:
 /home/himanshu/work/Gview_and_Gaussian/g09/l1.exe "/home/himanshu/work/Gview_and_Gaussian/g09/scratch/Gau-107011.inp" -scrdir="/home/himanshu/work/Gview_and_Gaussian/g09/scratch/"
 Entering Link 1 = /home/himanshu/work/Gview_and_Gaussian/g09/l1.exe PID=    107013.
  
 Copyright (c) 1988,1990,1992,1993,1995,1998,2003,2009,2013,
            Gaussian, Inc.  All Rights Reserved.
  
 This is part of the Gaussian(R) 09 program.  It is based on
 the Gaussian(R) 03 system (copyright 2003, Gaussian, Inc.),
 the Gaussian(R) 98 system (copyright 1998, Gaussian, Inc.),
 the Gaussian(R) 94 system (copyright 1995, Gaussian, Inc.),
 the Gaussian 92(TM) system (copyright 1992, Gaussian, Inc.),
 the Gaussian 90(TM) system (copyright 1990, Gaussian, Inc.),
 the Gaussian 88(TM) system (copyright 1988, Gaussian, Inc.),
 the Gaussian 86(TM) system (copyright 1986, Carnegie Mellon
 University), and the Gaussian 82(TM) system (copyright 1983,
 Carnegie Mellon University). Gaussian is a federally registered
 trademark of Gaussian, Inc.
  
 This software contains proprietary and confidential information,
 including trade secrets, belonging to Gaussian, Inc.
  
 This software is provided under written license and may be
 used, copied, transmitted, or stored only in accord with that
 written license.
  
 The following legend is applicable only to US Government
 contracts under FAR:
  
                    RESTRICTED RIGHTS LEGEND
  
 Use, reproduction and disclosure by the US Government is
 subject to restrictions as set forth in subparagraphs (a)
 and (c) of the Commercial Computer Software - Restricted
 Rights clause in FAR 52.227-19.
  
 Gaussian, Inc.
 340 Quinnipiac St., Bldg. 40, Wallingford CT 06492
  
  
 ---------------------------------------------------------------
 Warning -- This program may not be used in any manner that
 competes with the business of Gaussian, Inc. or will provide
 assistance to any competitor of Gaussian, Inc.  The licensee
 of this program is prohibited from giving any competitor of
 Gaussian, Inc. access to this program.  By using this program,
 the user acknowledges that Gaussian, Inc. is engaged in the
 business of creating and licensing software in the field of
 computational chemistry and represents and warrants to the
 licensee that it is not a competitor of Gaussian, Inc. and that
 it will not use this program in any manner prohibited above.
 ---------------------------------------------------------------
  

 Cite this work as:
 Gaussian 09, Revision D.01,
 M. J. Frisch, G. W. Trucks, H. B. Schlegel, G. E. Scuseria, 
 M. A. Robb, J. R. Cheeseman, G. Scalmani, V. Barone, B. Mennucci, 
 G. A. Petersson, H. Nakatsuji, M. Caricato, X. Li, H. P. Hratchian, 
 A. F. Izmaylov, J. Bloino, G. Zheng, J. L. Sonnenberg, M. Hada, 
 M. Ehara, K. Toyota, R. Fukuda, J. Hasegawa, M. Ishida, T. Nakajima, 
 Y. Honda, O. Kitao, H. Nakai, T. Vreven, J. A. Montgomery, Jr., 
 J. E. Peralta, F. Ogliaro, M. Bearpark, J. J. Heyd, E. Brothers, 
 K. N. Kudin, V. N. Staroverov, T. Keith, R. Kobayashi, J. Normand, 
 K. Raghavachari, A. Rendell, J. C. Burant, S. S. Iyengar, J. Tomasi, 
 M. Cossi, N. Rega, J. M. Millam, M. Klene, J. E. Knox, J. B. Cross, 
 V. Bakken, C. Adamo, J. Jaramillo, R. Gomperts, R. E. Stratmann, 
 O. Yazyev, A. J. Austin, R. Cammi, C. Pomelli, J. W. Ochterski, 
 R. L. Martin, K. Morokuma, V. G. Zakrzewski, G. A. Voth, 
 P. Salvador, J. J. Dannenberg, S. Dapprich, A. D. Daniels, 
 O. Farkas, J. B. Foresman, J. V. Ortiz, J. Cioslowski, 
 and D. J. Fox, Gaussian, Inc., Wallingford CT, 2013.
 
 ******************************************
 Gaussian 09:  AM64L-G09RevD.01 24-Apr-2013
                17-Feb-2025 
 ******************************************
 %chk=chair_cyclohexane.chk
 -----------------------------
 # hf/sto-3g geom=connectivity
 -----------------------------
 1/38=1,57=2/1;
 2/12=2,17=6,18=5,40=1/2;
 3/6=3,11=9,16=1,25=1,30=1/1,2,3;
 4//1;
 5/5=2,38=5/2;
 6/7=2,8=2,9=2,10=2,28=1/1;
 99/5=1,9=1/99;
 -------------------
 Title Card Required
 -------------------
 Symbolic Z-matrix:
 Charge =  0 Multiplicity = 1
 C                    -0.82091   1.22092  -0.23408 
 C                    -1.4678   -0.10047   0.23409 
 C                    -0.64689  -1.32138  -0.2341 
 C                     0.8209   -1.22092   0.23409 
 C                     1.4678    0.10046  -0.23408 
 C                     0.6469    1.32138   0.23408 
 H                    -1.09442  -2.23552   0.15065 
 H                    -1.53058  -0.10477   1.32067 
 H                    -2.48322  -0.16997  -0.15068 
 H                    -0.85603   1.27314  -1.32066 
 H                    -1.3888    2.06555   0.15071 
 H                     0.85599  -1.27312   1.32068 
 H                     1.3888   -2.06556  -0.15066 
 H                     2.48322   0.16996   0.1507 
 H                     1.53059   0.10475  -1.32067 
 H                     0.67458   1.37791   1.32066 
 H                     1.09441   2.23551  -0.15071 
 H                    -0.67454  -1.37786  -1.32068 
 
                          Input orientation:                          
 ---------------------------------------------------------------------
 Center     Atomic      Atomic             Coordinates (Angstroms)
 Number     Number       Type             X           Y           Z
 ---------------------------------------------------------------------
      1          6           0       -0.820906    1.220918   -0.234078
      2          6           0       -1.467800   -0.100468    0.234090
      3          6           0       -0.646893   -1.321378   -0.234097
      4          6           0        0.820900   -1.220918    0.234095
      5          6           0        1.467801    0.100460   -0.234085
      6          6           0        0.646897    1.321382    0.234076
      7          1           0       -1.094419   -2.235523    0.150646
      8          1           0       -1.530576   -0.104774    1.320671
      9          1           0       -2.483225   -0.169968   -0.150682
     10          1           0       -0.856032    1.273144   -1.320660
     11          1           0       -1.388800    2.065549    0.150708
     12          1           0        0.855990   -1.273117    1.320677
     13          1           0        1.388805   -2.065559   -0.150656
     14          1           0        2.483222    0.169963    0.150697
     15          1           0        1.530590    0.104748   -1.320665
     16          1           0        0.674577    1.377912    1.320657
     17          1           0        1.094413    2.235511   -0.150715
     18          1           0       -0.674543   -1.377861   -1.320680
 ---------------------------------------------------------------------
                    Distance matrix (angstroms):
                    1          2          3          4          5
     1  C    0.000000
     2  C    1.543928   0.000000
     3  C    2.548245   1.543927   0.000000
     4  C    2.979476   2.548245   1.543927   0.000000
     5  C    2.548256   2.979482   2.548245   1.543927   0.000000
     6  C    1.543926   2.548254   2.979474   2.548248   1.543927
     7  H    3.488525   2.169064   1.088103   2.169063   3.488525
     8  H    2.162946   1.088401   2.162944   2.820613   3.383733
     9  H    2.169061   1.088103   2.169059   3.488522   3.961148
    10  H    1.088403   2.162941   2.820621   3.383741   2.820645
    11  H    1.088102   2.169061   3.488521   3.961135   3.488526
    12  H    3.383704   2.820599   2.162940   1.088401   2.162940
    13  H    3.961150   3.488524   2.169062   1.088103   2.169064
    14  H    3.488527   3.961144   3.488522   2.169060   1.088103
    15  H    2.820646   3.383743   2.820620   2.162944   1.088402
    16  H    2.162943   2.820641   3.383743   2.820628   2.162941
    17  H    2.169054   3.488525   3.961132   3.488523   2.169059
    18  H    2.820599   2.162938   1.088401   2.162939   2.820596
                    6          7          8          9         10
     6  C    0.000000
     7  H    3.961151   0.000000
     8  H    2.820638   2.469673   0.000000
     9  H    3.488528   2.507209   1.754044   0.000000
    10  H    2.162944   3.812127   3.054553   2.469651   0.000000
    11  H    2.169054   4.311135   2.469659   2.507218   1.754044
    12  H    2.820611   2.469675   2.657202   3.812111   4.048595
    13  H    3.488527   2.507204   3.812120   4.311134   4.189885
    14  H    2.169057   4.311135   4.189856   4.987182   3.812154
    15  H    2.162946   3.812125   4.048616   4.189873   2.657276
    16  H    1.088402   4.189891   2.657265   3.812150   3.054553
    17  H    1.088102   4.987179   3.812149   4.311128   2.469647
    18  H    3.383694   1.754047   3.054550   2.469662   2.657210
                   11         12         13         14         15
    11  H    0.000000
    12  H    4.189821   0.000000
    13  H    4.987180   1.754046   0.000000
    14  H    4.311125   2.469659   2.507214   0.000000
    15  H    3.812154   3.054551   2.469667   1.754043   0.000000
    16  H    2.469646   2.657228   3.812136   2.469645   3.054552
    17  H    2.507207   3.812127   4.311134   2.507216   2.469654
    18  H    3.812115   3.054549   2.469674   3.812111   2.657205
                   16         17         18
    16  H    0.000000
    17  H    1.754045   0.000000
    18  H    4.048589   4.189807   0.000000
 This structure is nearly, but not quite of a higher symmetry.
 Consider Symm=Loose if the higher symmetry is desired.
 Stoichiometry    C6H12
 Framework group  C1[X(C6H12)]
 Deg. of freedom    48
 Full point group                 C1      NOp   1
 Largest Abelian subgroup         C1      NOp   1
 Largest concise Abelian subgroup C1      NOp   1
                         Standard orientation:                         
 ---------------------------------------------------------------------
 Center     Atomic      Atomic             Coordinates (Angstroms)
 Number     Number       Type             X           Y           Z
 ---------------------------------------------------------------------
      1          6           0        0.820671    1.221076    0.234078
      2          6           0        1.467819   -0.100185   -0.234090
      3          6           0        0.647148   -1.321254    0.234097
      4          6           0       -0.820664   -1.221076   -0.234095
      5          6           0       -1.467821    0.100177    0.234085
      6          6           0       -0.647152    1.321258   -0.234076
      7          1           0        1.094850   -2.235312   -0.150646
      8          1           0        1.530596   -0.104479   -1.320671
      9          1           0        2.483258   -0.169490    0.150682
     10          1           0        0.855787    1.273309    1.320660
     11          1           0        1.388402    2.065817   -0.150708
     12          1           0       -0.855745   -1.273281   -1.320677
     13          1           0       -1.388407   -2.065827    0.150656
     14          1           0       -2.483255    0.169484   -0.150697
     15          1           0       -1.530610    0.104453    1.320665
     16          1           0       -0.674843    1.377782   -1.320657
     17          1           0       -1.094844    2.235301    0.150715
     18          1           0        0.674808   -1.377731    1.320680
 ---------------------------------------------------------------------
 Rotational constants (GHZ):      4.2684172      4.2684025      2.4350852
 Standard basis: STO-3G (5D, 7F)
 There are    42 symmetry adapted cartesian basis functions of A   symmetry.
 There are    42 symmetry adapted basis functions of A   symmetry.
    42 basis functions,   126 primitive gaussians,    42 cartesian basis functions
    24 alpha electrons       24 beta electrons
       nuclear repulsion energy       254.8836362541 Hartrees.
 NAtoms=   18 NActive=   18 NUniq=   18 SFac= 1.00D+00 NAtFMM=   60 NAOKFM=F Big=F
 Integral buffers will be    131072 words long.
 Raffenetti 1 integral format.
 Two-electron integral symmetry is turned on.
 One-electron integrals computed using PRISM.
 NBasis=    42 RedAO= T EigKep=  1.95D-01  NBF=    42
 NBsUse=    42 1.00D-06 EigRej= -1.00D+00 NBFU=    42
 ExpMin= 1.69D-01 ExpMax= 7.16D+01 ExpMxC= 7.16D+01 IAcc=1 IRadAn=         1 AccDes= 0.00D+00
 Harris functional with IExCor=  205 and IRadAn=       1 diagonalized for initial guess.
 HarFok:  IExCor=  205 AccDes= 0.00D+00 IRadAn=         1 IDoV= 1 UseB2=F ITyADJ=14
 ICtDFT=  3500011 ScaDFX=  1.000000  1.000000  1.000000  1.000000
 FoFCou: FMM=F IPFlag=           0 FMFlag=      100000 FMFlg1=           0
         NFxFlg=           0 DoJE=T BraDBF=F KetDBF=T FulRan=T
         wScrn=  0.000000 ICntrl=     500 IOpCl=  0 I1Cent=   200000004 NGrid=           0
         NMat0=    1 NMatS0=      1 NMatT0=    0 NMatD0=    1 NMtDS0=    0 NMtDT0=    0
 Petite list used in FoFCou.
 Keep R1 ints in memory in canonical form, NReq=1270635.
 Requested convergence on RMS density matrix=1.00D-08 within 128 cycles.
 Requested convergence on MAX density matrix=1.00D-06.
 Requested convergence on             energy=1.00D-06.
 No special actions if energy rises.
 SCF Done:  E(RHF) =  -231.482671629     A.U. after    8 cycles
            NFock=  8  Conv=0.34D-08     -V/T= 2.0093

 **********************************************************************

            Population analysis using the SCF density.

 **********************************************************************

 Orbital symmetries:
       Occupied  (A) (A) (A) (A) (A) (A) (A) (A) (A) (A) (A) (A)
                 (A) (A) (A) (A) (A) (A) (A) (A) (A) (A) (A) (A)
       Virtual   (A) (A) (A) (A) (A) (A) (A) (A) (A) (A) (A) (A)
                 (A) (A) (A) (A) (A) (A)
 The electronic state is 1-A.
 Alpha  occ. eigenvalues --  -11.03491 -11.03485 -11.03485 -11.03455 -11.03455
 Alpha  occ. eigenvalues --  -11.03428  -1.06645  -0.95873  -0.95873  -0.79234
 Alpha  occ. eigenvalues --   -0.79234  -0.71954  -0.61175  -0.57701  -0.56652
 Alpha  occ. eigenvalues --   -0.56652  -0.48811  -0.48811  -0.46873  -0.44970
 Alpha  occ. eigenvalues --   -0.44970  -0.41581  -0.38403  -0.38403
 Alpha virt. eigenvalues --    0.58559   0.60705   0.60705   0.64139   0.65531
 Alpha virt. eigenvalues --    0.65531   0.70423   0.70424   0.73725   0.75245
 Alpha virt. eigenvalues --    0.75245   0.77517   0.80534   0.80534   0.80576
 Alpha virt. eigenvalues --    0.81866   0.83650   0.83650
          Condensed to atoms (all electrons):
               1          2          3          4          5          6
     1  C    4.746054   0.361215  -0.021509  -0.003589  -0.021509   0.361215
     2  C    0.361215   4.746054   0.361215  -0.021509  -0.003589  -0.021509
     3  C   -0.021509   0.361215   4.746055   0.361215  -0.021509  -0.003589
     4  C   -0.003589  -0.021509   0.361215   4.746055   0.361215  -0.021509
     5  C   -0.021509  -0.003589  -0.021509   0.361215   4.746054   0.361215
     6  C    0.361215  -0.021509  -0.003589  -0.021509   0.361215   4.746054
     7  H    0.001184  -0.021104   0.384133  -0.021104   0.001184   0.000007
     8  H   -0.022516   0.383024  -0.022516  -0.001706   0.000053  -0.001706
     9  H   -0.021104   0.384133  -0.021104   0.001184   0.000007   0.001184
    10  H    0.383024  -0.022517  -0.001706   0.000053  -0.001706  -0.022516
    11  H    0.384133  -0.021104   0.001184   0.000007   0.001184  -0.021104
    12  H    0.000053  -0.001706  -0.022517   0.383024  -0.022517  -0.001706
    13  H    0.000007   0.001184  -0.021104   0.384133  -0.021104   0.001184
    14  H    0.001184   0.000007   0.001184  -0.021104   0.384133  -0.021104
    15  H   -0.001706   0.000053  -0.001706  -0.022516   0.383024  -0.022516
    16  H   -0.022516  -0.001706   0.000053  -0.001706  -0.022517   0.383024
    17  H   -0.021104   0.001184   0.000007   0.001184  -0.021104   0.384133
    18  H   -0.001706  -0.022517   0.383024  -0.022517  -0.001706   0.000053
               7          8          9         10         11         12
     1  C    0.001184  -0.022516  -0.021104   0.383024   0.384133   0.000053
     2  C   -0.021104   0.383024   0.384133  -0.022517  -0.021104  -0.001706
     3  C    0.384133  -0.022516  -0.021104  -0.001706   0.001184  -0.022517
     4  C   -0.021104  -0.001706   0.001184   0.000053   0.000007   0.383024
     5  C    0.001184   0.000053   0.000007  -0.001706   0.001184  -0.022517
     6  C    0.000007  -0.001706   0.001184  -0.022516  -0.021104  -0.001706
     7  H    0.636107  -0.002468  -0.001686   0.000004  -0.000031  -0.002468
     8  H   -0.002468   0.640443  -0.023686   0.001883  -0.002469   0.000309
     9  H   -0.001686  -0.023686   0.636108  -0.002469  -0.001686   0.000004
    10  H    0.000004   0.001883  -0.002469   0.640443  -0.023686   0.000005
    11  H   -0.000031  -0.002469  -0.001686  -0.023686   0.636108  -0.000008
    12  H   -0.002468   0.000309   0.000004   0.000005  -0.000008   0.640443
    13  H   -0.001686   0.000004  -0.000031  -0.000008   0.000002  -0.023686
    14  H   -0.000031  -0.000008   0.000002   0.000004  -0.000031  -0.002469
    15  H    0.000004   0.000005  -0.000008   0.000309   0.000004   0.001883
    16  H   -0.000008   0.000309   0.000004   0.001883  -0.002469   0.000309
    17  H    0.000002   0.000004  -0.000031  -0.002469  -0.001686   0.000004
    18  H   -0.023686   0.001883  -0.002468   0.000309   0.000004   0.001883
              13         14         15         16         17         18
     1  C    0.000007   0.001184  -0.001706  -0.022516  -0.021104  -0.001706
     2  C    0.001184   0.000007   0.000053  -0.001706   0.001184  -0.022517
     3  C   -0.021104   0.001184  -0.001706   0.000053   0.000007   0.383024
     4  C    0.384133  -0.021104  -0.022516  -0.001706   0.001184  -0.022517
     5  C   -0.021104   0.384133   0.383024  -0.022517  -0.021104  -0.001706
     6  C    0.001184  -0.021104  -0.022516   0.383024   0.384133   0.000053
     7  H   -0.001686  -0.000031   0.000004  -0.000008   0.000002  -0.023686
     8  H    0.000004  -0.000008   0.000005   0.000309   0.000004   0.001883
     9  H   -0.000031   0.000002  -0.000008   0.000004  -0.000031  -0.002468
    10  H   -0.000008   0.000004   0.000309   0.001883  -0.002469   0.000309
    11  H    0.000002  -0.000031   0.000004  -0.002469  -0.001686   0.000004
    12  H   -0.023686  -0.002469   0.001883   0.000309   0.000004   0.001883
    13  H    0.636107  -0.001686  -0.002468   0.000004  -0.000031  -0.002468
    14  H   -0.001686   0.636108  -0.023686  -0.002469  -0.001686   0.000004
    15  H   -0.002468  -0.023686   0.640443   0.001883  -0.002469   0.000309
    16  H    0.000004  -0.002469   0.001883   0.640443  -0.023686   0.000005
    17  H   -0.000031  -0.001686  -0.002469  -0.023686   0.636108  -0.000008
    18  H   -0.002468   0.000004   0.000309   0.000005  -0.000008   0.640443
 Mulliken charges:
               1
     1  C   -0.100808
     2  C   -0.100808
     3  C   -0.100808
     4  C   -0.100808
     5  C   -0.100808
     6  C   -0.100808
     7  H    0.051648
     8  H    0.049160
     9  H    0.051648
    10  H    0.049160
    11  H    0.051648
    12  H    0.049160
    13  H    0.051648
    14  H    0.051648
    15  H    0.049160
    16  H    0.049160
    17  H    0.051648
    18  H    0.049160
 Sum of Mulliken charges =   0.00000
 Mulliken charges with hydrogens summed into heavy atoms:
               1
     1  C    0.000000
     2  C    0.000000
     3  C    0.000000
     4  C    0.000000
     5  C    0.000000
     6  C    0.000000
 Electronic spatial extent (au):  <R**2>=            591.1233
 Charge=              0.0000 electrons
 Dipole moment (field-independent basis, Debye):
    X=              0.0000    Y=              0.0000    Z=              0.0000  Tot=              0.0000
 Quadrupole moment (field-independent basis, Debye-Ang):
   XX=            -38.2700   YY=            -38.2700   ZZ=            -37.4936
   XY=              0.0000   XZ=              0.0000   YZ=              0.0000
 Traceless Quadrupole moment (field-independent basis, Debye-Ang):
   XX=             -0.2588   YY=             -0.2588   ZZ=              0.5176
   XY=              0.0000   XZ=              0.0000   YZ=              0.0000
 Octapole moment (field-independent basis, Debye-Ang**2):
  XXX=              0.0000  YYY=              0.0000  ZZZ=              0.0000  XYY=              0.0000
  XXY=              0.0000  XXZ=              0.0000  XZZ=              0.0000  YZZ=              0.0001
  YYZ=              0.0000  XYZ=              0.0000
 Hexadecapole moment (field-independent basis, Debye-Ang**3):
 XXXX=           -334.5688 YYYY=           -334.5673 ZZZZ=            -83.9828 XXXY=              0.0000
 XXXZ=              2.0225 YYYX=              0.0000 YYYZ=              0.4193 ZZZX=              0.0000
 ZZZY=              0.0000 XXYY=           -111.5227 XXZZ=            -71.4891 YYZZ=            -71.4890
 XXYZ=             -0.4193 YYXZ=             -2.0225 ZZXY=              0.0000
 N-N= 2.548836362541D+02 E-N=-1.047380978256D+03  KE= 2.293406070024D+02
 1\1\GINC-LEGION\SP\RHF\STO-3G\C6H12\HIMANSHU\17-Feb-2025\0\\# hf/sto-3
 g geom=connectivity\\Title Card Required\\0,1\C,0,-0.8209061,1.220918,
 -0.23407846\C,0,-1.46779965,-0.10046772,0.23408957\C,0,-0.64689295,-1.
 32137839,-0.23409743\C,0,0.82089969,-1.22091782,0.23409493\C,0,1.46780
 136,0.10045951,-0.23408466\C,0,0.64689708,1.32138223,0.23407641\H,0,-1
 .09441904,-2.23552329,0.1506459\H,0,-1.53057569,-0.104774,1.32067065\H
 ,0,-2.48322487,-0.16996845,-0.15068218\H,0,-0.85603194,1.2731441,-1.32
 065966\H,0,-1.38879965,2.06554947,0.1507082\H,0,0.85599024,-1.27311652
 ,1.32067715\H,0,1.38880461,-2.06555918,-0.15065605\H,0,2.48322231,0.16
 996287,0.15069691\H,0,1.53059002,0.10474764,-1.32066532\H,0,0.67457708
 ,1.37791204,1.32065727\H,0,1.09441307,2.23551144,-0.15071473\H,0,-0.67
 454273,-1.37786096,-1.32068031\\Version=AM64L-G09RevD.01\State=1-A\HF=
 -231.4826716\RMSD=3.436e-09\Dipole=0.0000004,0.0000033,0.\Quadrupole=-
 0.1924014,-0.1923906,0.384792,0.0000022,-0.0000005,-0.000002\PG=C01 [X
 (C6H12)]\\@


 SIC AS THE CAWSE OF EWERY THING IS, SIC WILBE THE EFFECT.
 -- PROVERBS AND REASONS OF THE YEAR 1585
           AS REPRINTED IN PAISLEY MAGAZINE 1828.
 Job cpu time:       0 days  0 hours  0 minutes  1.6 seconds.
 File lengths (MBytes):  RWF=      5 Int=      0 D2E=      0 Chk=      2 Scr=      1
 Normal termination of Gaussian 09 at Mon Feb 17 23:40:19 2025.
