 Entering Gaussian System, Link 0=g09
 Input=/home/himanshu/git/molecular-modeling/a1/q4/acetaldehyde.com
 Output=/home/himanshu/git/molecular-modeling/a1/q4/acetaldehyde.log
 Initial command:
 /home/himanshu/work/Gview_and_Gaussian/g09/l1.exe "/home/himanshu/work/Gview_and_Gaussian/g09/scratch/Gau-114482.inp" -scrdir="/home/himanshu/work/Gview_and_Gaussian/g09/scratch/"
 Entering Link 1 = /home/himanshu/work/Gview_and_Gaussian/g09/l1.exe PID=    114484.
  
 Copyright (c) 1988,1990,1992,1993,1995,1998,2003,2009,2013,
            Gaussian, Inc.  All Rights Reserved.
  
 This is part of the Gaussian(R) 09 program.  It is based on
 the Gaussian(R) 03 system (copyright 2003, Gaussian, Inc.),
 the Gaussian(R) 98 system (copyright 1998, Gaussian, Inc.),
 the Gaussian(R) 94 system (copyright 1995, Gaussian, Inc.),
 the Gaussian 92(TM) system (copyright 1992, Gaussian, Inc.),
 the Gaussian 90(TM) system (copyright 1990, Gaussian, Inc.),
 the Gaussian 88(TM) system (copyright 1988, Gaussian, Inc.),
 the Gaussian 86(TM) system (copyright 1986, Carnegie Mellon
 University), and the Gaussian 82(TM) system (copyright 1983,
 Carnegie Mellon University). Gaussian is a federally registered
 trademark of Gaussian, Inc.
  
 This software contains proprietary and confidential information,
 including trade secrets, belonging to Gaussian, Inc.
  
 This software is provided under written license and may be
 used, copied, transmitted, or stored only in accord with that
 written license.
  
 The following legend is applicable only to US Government
 contracts under FAR:
  
                    RESTRICTED RIGHTS LEGEND
  
 Use, reproduction and disclosure by the US Government is
 subject to restrictions as set forth in subparagraphs (a)
 and (c) of the Commercial Computer Software - Restricted
 Rights clause in FAR 52.227-19.
  
 Gaussian, Inc.
 340 Quinnipiac St., Bldg. 40, Wallingford CT 06492
  
  
 ---------------------------------------------------------------
 Warning -- This program may not be used in any manner that
 competes with the business of Gaussian, Inc. or will provide
 assistance to any competitor of Gaussian, Inc.  The licensee
 of this program is prohibited from giving any competitor of
 Gaussian, Inc. access to this program.  By using this program,
 the user acknowledges that Gaussian, Inc. is engaged in the
 business of creating and licensing software in the field of
 computational chemistry and represents and warrants to the
 licensee that it is not a competitor of Gaussian, Inc. and that
 it will not use this program in any manner prohibited above.
 ---------------------------------------------------------------
  

 Cite this work as:
 Gaussian 09, Revision D.01,
 M. J. Frisch, G. W. Trucks, H. B. Schlegel, G. E. Scuseria, 
 M. A. Robb, J. R. Cheeseman, G. Scalmani, V. Barone, B. Mennucci, 
 G. A. Petersson, H. Nakatsuji, M. Caricato, X. Li, H. P. Hratchian, 
 A. F. Izmaylov, J. Bloino, G. Zheng, J. L. Sonnenberg, M. Hada, 
 M. Ehara, K. Toyota, R. Fukuda, J. Hasegawa, M. Ishida, T. Nakajima, 
 Y. Honda, O. Kitao, H. Nakai, T. Vreven, J. A. Montgomery, Jr., 
 J. E. Peralta, F. Ogliaro, M. Bearpark, J. J. Heyd, E. Brothers, 
 K. N. Kudin, V. N. Staroverov, T. Keith, R. Kobayashi, J. Normand, 
 K. Raghavachari, A. Rendell, J. C. Burant, S. S. Iyengar, J. Tomasi, 
 M. Cossi, N. Rega, J. M. Millam, M. Klene, J. E. Knox, J. B. Cross, 
 V. Bakken, C. Adamo, J. Jaramillo, R. Gomperts, R. E. Stratmann, 
 O. Yazyev, A. J. Austin, R. Cammi, C. Pomelli, J. W. Ochterski, 
 R. L. Martin, K. Morokuma, V. G. Zakrzewski, G. A. Voth, 
 P. Salvador, J. J. Dannenberg, S. Dapprich, A. D. Daniels, 
 O. Farkas, J. B. Foresman, J. V. Ortiz, J. Cioslowski, 
 and D. J. Fox, Gaussian, Inc., Wallingford CT, 2013.
 
 ******************************************
 Gaussian 09:  AM64L-G09RevD.01 24-Apr-2013
                17-Feb-2025 
 ******************************************
 %chk=acetaldehyde.chk
 ---------------------------------------------------
 # opt=calcfc freq=raman hf/sto-3g geom=connectivity
 ---------------------------------------------------
 1/10=4,18=20,19=15,38=1,57=2/1,3;
 2/9=110,12=2,17=6,18=5,40=1/2;
 3/6=3,11=9,16=1,25=1,30=1,71=2,140=1/1,2,3;
 4//1;
 5/5=2,38=5/2;
 8/6=4,10=90,11=11/1;
 11/6=1,8=1,9=11,15=111,16=1/1,2,10;
 10/6=1,13=1/2;
 6/7=2,8=2,9=2,10=2,28=1/1;
 7/10=1,18=20,25=1/1,2,3,16;
 1/10=4,18=20,19=15/3(2);
 2/9=110/2;
 99//99;
 2/9=110/2;
 3/6=3,11=9,16=1,25=1,30=1,71=1/1,2,3;
 4/5=5,16=3,69=1/1;
 5/5=2,38=5/2;
 7//1,2,3,16;
 1/18=20,19=15/3(-5);
 2/9=110/2;
 6/7=2,8=2,9=2,10=2,19=2,28=1/1;
 99/9=1/99;
 -------------------
 Title Card Required
 -------------------
 Symbolic Z-matrix:
 Charge =  0 Multiplicity = 1
 C                    -1.14823   0.89248   0. 
 O                    -2.12162   0.22217   0. 
 C                     0.25663   0.35706   0. 
 H                     0.78514   0.72507  -0.87567 
 H                     0.78514   0.72507   0.87567 
 H                     0.24726  -0.72475   0. 
 H                    -1.22853   1.95947   0. 
 

 GradGradGradGradGradGradGradGradGradGradGradGradGradGradGradGradGradGrad
 Berny optimization.
 Initialization pass.
                           ----------------------------
                           !    Initial Parameters    !
                           ! (Angstroms and Degrees)  !
 --------------------------                            --------------------------
 ! Name  Definition              Value          Derivative Info.                !
 --------------------------------------------------------------------------------
 ! R1    R(1,2)                  1.1819         calculate D2E/DX2 analytically  !
 ! R2    R(1,3)                  1.5034         calculate D2E/DX2 analytically  !
 ! R3    R(1,7)                  1.07           calculate D2E/DX2 analytically  !
 ! R4    R(3,4)                  1.087          calculate D2E/DX2 analytically  !
 ! R5    R(3,5)                  1.087          calculate D2E/DX2 analytically  !
 ! R6    R(3,6)                  1.0818         calculate D2E/DX2 analytically  !
 ! A1    A(2,1,3)              124.5841         calculate D2E/DX2 analytically  !
 ! A2    A(2,1,7)              120.2487         calculate D2E/DX2 analytically  !
 ! A3    A(3,1,7)              115.1672         calculate D2E/DX2 analytically  !
 ! A4    A(1,3,4)              109.4973         calculate D2E/DX2 analytically  !
 ! A5    A(1,3,5)              109.4973         calculate D2E/DX2 analytically  !
 ! A6    A(1,3,6)              110.3675         calculate D2E/DX2 analytically  !
 ! A7    A(4,3,5)              107.3341         calculate D2E/DX2 analytically  !
 ! A8    A(4,3,6)              110.0447         calculate D2E/DX2 analytically  !
 ! A9    A(5,3,6)              110.0447         calculate D2E/DX2 analytically  !
 ! D1    D(2,1,3,4)            121.2852         calculate D2E/DX2 analytically  !
 ! D2    D(2,1,3,5)           -121.2852         calculate D2E/DX2 analytically  !
 ! D3    D(2,1,3,6)              0.0            calculate D2E/DX2 analytically  !
 ! D4    D(7,1,3,4)            -58.7148         calculate D2E/DX2 analytically  !
 ! D5    D(7,1,3,5)             58.7148         calculate D2E/DX2 analytically  !
 ! D6    D(7,1,3,6)            180.0            calculate D2E/DX2 analytically  !
 --------------------------------------------------------------------------------
 Trust Radius=3.00D-01 FncErr=1.00D-07 GrdErr=1.00D-07
 Number of steps in this run=     31 maximum allowed number of steps=    100.
 GradGradGradGradGradGradGradGradGradGradGradGradGradGradGradGradGradGrad

                          Input orientation:                          
 ---------------------------------------------------------------------
 Center     Atomic      Atomic             Coordinates (Angstroms)
 Number     Number       Type             X           Y           Z
 ---------------------------------------------------------------------
      1          6           0       -1.148225    0.892484    0.000000
      2          8           0       -2.121620    0.222171    0.000000
      3          6           0        0.256625    0.357056    0.000000
      4          1           0        0.785141    0.725069   -0.875672
      5          1           0        0.785141    0.725069    0.875672
      6          1           0        0.247265   -0.724748    0.000000
      7          1           0       -1.228526    1.959467    0.000000
 ---------------------------------------------------------------------
                    Distance matrix (angstroms):
                    1          2          3          4          5
     1  C    0.000000
     2  O    1.181870   0.000000
     3  C    1.503426   2.382067   0.000000
     4  H    2.129022   3.077168   1.086998   0.000000
     5  H    2.129022   3.077168   1.086998   1.751344   0.000000
     6  H    2.136079   2.551131   1.081844   1.777099   1.777099
     7  H    1.070000   1.953411   2.184810   2.519007   2.519007
                    6          7
     6  H    0.000000
     7  H    3.063163   0.000000
 Stoichiometry    C2H4O
 Framework group  CS[SG(C2H2O),X(H2)]
 Deg. of freedom    10
 Full point group                 CS      NOp   2
 Largest Abelian subgroup         CS      NOp   2
 Largest concise Abelian subgroup CS      NOp   2
                         Standard orientation:                         
 ---------------------------------------------------------------------
 Center     Atomic      Atomic             Coordinates (Angstroms)
 Number     Number       Type             X           Y           Z
 ---------------------------------------------------------------------
      1          6           0        0.000000    0.462879    0.000000
      2          8           0        1.180319    0.402357    0.000000
      3          6           0       -0.915631   -0.729559    0.000000
      4          1           0       -1.558627   -0.693242    0.875672
      5          1           0       -1.558627   -0.693242   -0.875672
      6          1           0       -0.340532   -1.645881    0.000000
      7          1           0       -0.490978    1.413585    0.000000
 ---------------------------------------------------------------------
 Rotational constants (GHZ):     58.8106507     10.3238588      9.2807325
 Standard basis: STO-3G (5D, 7F)
 There are    15 symmetry adapted cartesian basis functions of A'  symmetry.
 There are     4 symmetry adapted cartesian basis functions of A"  symmetry.
 There are    15 symmetry adapted basis functions of A'  symmetry.
 There are     4 symmetry adapted basis functions of A"  symmetry.
    19 basis functions,    57 primitive gaussians,    19 cartesian basis functions
    12 alpha electrons       12 beta electrons
       nuclear repulsion energy        70.5614660916 Hartrees.
 NAtoms=    7 NActive=    7 NUniq=    6 SFac= 1.36D+00 NAtFMM=   60 NAOKFM=F Big=F
 Integral buffers will be    131072 words long.
 Raffenetti 1 integral format.
 Two-electron integral symmetry is turned on.
 One-electron integrals computed using PRISM.
 NBasis=    19 RedAO= T EigKep=  2.43D-01  NBF=    15     4
 NBsUse=    19 1.00D-06 EigRej= -1.00D+00 NBFU=    15     4
 ExpMin= 1.69D-01 ExpMax= 1.31D+02 ExpMxC= 1.31D+02 IAcc=1 IRadAn=         1 AccDes= 0.00D+00
 Harris functional with IExCor=  205 and IRadAn=       1 diagonalized for initial guess.
 HarFok:  IExCor=  205 AccDes= 0.00D+00 IRadAn=         1 IDoV= 1 UseB2=F ITyADJ=14
 ICtDFT=  3500011 ScaDFX=  1.000000  1.000000  1.000000  1.000000
 FoFCou: FMM=F IPFlag=           0 FMFlag=      100000 FMFlg1=           0
         NFxFlg=           0 DoJE=T BraDBF=F KetDBF=T FulRan=T
         wScrn=  0.000000 ICntrl=     500 IOpCl=  0 I1Cent=   200000004 NGrid=           0
         NMat0=    1 NMatS0=      1 NMatT0=    0 NMatD0=    1 NMtDS0=    0 NMtDT0=    0
 Petite list used in FoFCou.
 Initial guess orbital symmetries:
       Occupied  (A') (A') (A') (A') (A') (A') (A') (A") (A') (A')
                 (A") (A')
       Virtual   (A") (A') (A') (A") (A') (A') (A')
 The electronic state of the initial guess is 1-A'.
 Keep R1 ints in memory in symmetry-blocked form, NReq=847221.
 Requested convergence on RMS density matrix=1.00D-08 within 128 cycles.
 Requested convergence on MAX density matrix=1.00D-06.
 Requested convergence on             energy=1.00D-06.
 No special actions if energy rises.
 SCF Done:  E(RHF) =  -150.941007862     A.U. after   10 cycles
            NFock= 10  Conv=0.99D-08     -V/T= 2.0079
 Range of M.O.s used for correlation:     1    19
 NBasis=    19 NAE=    12 NBE=    12 NFC=     0 NFV=     0
 NROrb=     19 NOA=    12 NOB=    12 NVA=     7 NVB=     7
 Symmetrizing basis deriv contribution to polar:
 IMax=3 JMax=2 DiffMx= 0.00D+00
 G2DrvN: will do     8 centers at a time, making    1 passes.
 Calling FoFCou, ICntrl=  3107 FMM=F I1Cent=   0 AccDes= 0.00D+00.
 End of G2Drv F.D. properties file   721 does not exist.
 End of G2Drv F.D. properties file   722 does not exist.
 End of G2Drv F.D. properties file   788 does not exist.
          IDoAtm=1111111
          Differentiating once with respect to nuclear coordinates.
 Keep R1 ints in memory in symmetry-blocked form, NReq=830794.
          There are    21 degrees of freedom in the 1st order CPHF.  IDoFFX=4 NUNeed=    21.
     18 vectors produced by pass  0 Test12= 4.00D-16 4.76D-09 XBig12= 4.96D-02 1.41D-01.
 AX will form    18 AO Fock derivatives at one time.
     18 vectors produced by pass  1 Test12= 4.00D-16 4.76D-09 XBig12= 2.69D-03 2.67D-02.
     18 vectors produced by pass  2 Test12= 4.00D-16 4.76D-09 XBig12= 7.40D-06 1.09D-03.
     18 vectors produced by pass  3 Test12= 4.00D-16 4.76D-09 XBig12= 8.27D-09 3.60D-05.
     11 vectors produced by pass  4 Test12= 4.00D-16 4.76D-09 XBig12= 9.70D-12 9.88D-07.
      1 vectors produced by pass  5 Test12= 4.00D-16 4.76D-09 XBig12= 2.27D-16 6.54D-09.
 InvSVY:  IOpt=1 It=  1 EMax= 2.78D-17
 Solved reduced A of dimension    84 with    21 vectors.
 End of Minotr F.D. properties file   721 does not exist.
 End of Minotr F.D. properties file   722 does not exist.
 End of Minotr F.D. properties file   788 does not exist.

 **********************************************************************

            Population analysis using the SCF density.

 **********************************************************************

 Orbital symmetries:
       Occupied  (A') (A') (A') (A') (A') (A') (A') (A") (A') (A')
                 (A") (A')
       Virtual   (A") (A') (A') (A") (A') (A') (A')
 The electronic state is 1-A'.
 Alpha  occ. eigenvalues --  -20.29680 -11.12814 -11.05330  -1.35391  -0.96714
 Alpha  occ. eigenvalues --   -0.75375  -0.62099  -0.56541  -0.55250  -0.50793
 Alpha  occ. eigenvalues --   -0.43019  -0.33715
 Alpha virt. eigenvalues --    0.30362   0.64745   0.67905   0.70811   0.73625
 Alpha virt. eigenvalues --    0.79550   1.02364
          Condensed to atoms (all electrons):
               1          2          3          4          5          6
     1  C    4.711212   0.459949   0.360693  -0.020702  -0.020702  -0.021043
     2  O    0.459949   7.813952  -0.026887   0.000311   0.000311  -0.001047
     3  C    0.360693  -0.026887   4.770301   0.381246   0.381246   0.384693
     4  H   -0.020702   0.000311   0.381246   0.605715  -0.020629  -0.019429
     5  H   -0.020702   0.000311   0.381246  -0.020629   0.605715  -0.019429
     6  H   -0.021043  -0.001047   0.384693  -0.019429  -0.019429   0.595913
     7  H    0.377166  -0.029211  -0.039761  -0.000840  -0.000840   0.001752
               7
     1  C    0.377166
     2  O   -0.029211
     3  C   -0.039761
     4  H   -0.000840
     5  H   -0.000840
     6  H    0.001752
     7  H    0.643493
 Mulliken charges:
               1
     1  C    0.153426
     2  O   -0.217378
     3  C   -0.211532
     4  H    0.074326
     5  H    0.074326
     6  H    0.078590
     7  H    0.048241
 Sum of Mulliken charges =   0.00000
 Mulliken charges with hydrogens summed into heavy atoms:
               1
     1  C    0.201667
     2  O   -0.217378
     3  C    0.015710
 APT charges:
               1
     1  C   -0.118091
     2  O   -0.201318
     3  C   -1.003446
     4  H    0.363771
     5  H    0.363771
     6  H    0.301039
     7  H    0.294274
 Sum of APT charges =   0.00000
 APT charges with hydrogens summed into heavy atoms:
               1
     1  C    0.176183
     2  O   -0.201318
     3  C    0.025135
 Electronic spatial extent (au):  <R**2>=            161.6354
 Charge=              0.0000 electrons
 Dipole moment (field-independent basis, Debye):
    X=             -1.7264    Y=             -0.1287    Z=              0.0000  Tot=              1.7312
 Quadrupole moment (field-independent basis, Debye-Ang):
   XX=            -19.0991   YY=            -16.8176   ZZ=            -16.4153
   XY=             -0.6932   XZ=              0.0000   YZ=              0.0000
 Traceless Quadrupole moment (field-independent basis, Debye-Ang):
   XX=             -1.6551   YY=              0.6264   ZZ=              1.0287
   XY=             -0.6932   XZ=              0.0000   YZ=              0.0000
 Octapole moment (field-independent basis, Debye-Ang**2):
  XXX=              2.5510  YYY=              1.9809  ZZZ=              0.0000  XYY=              1.9781
  XXY=             -0.2281  XXZ=              0.0000  XZZ=              1.9118  YZZ=              0.8209
  YYZ=              0.0000  XYZ=              0.0000
 Hexadecapole moment (field-independent basis, Debye-Ang**3):
 XXXX=           -101.3714 YYYY=            -62.5476 ZZZZ=            -18.3882 XXXY=            -21.8615
 XXXZ=              0.0000 YYYX=            -22.4397 YYYZ=              0.0000 ZZZX=              0.0000
 ZZZY=              0.0000 XXYY=            -28.1530 XXZZ=            -17.3462 YYZZ=            -14.1986
 XXYZ=              0.0000 YYXZ=              0.0000 ZZXY=             -6.2729
 N-N= 7.056146609160D+01 E-N=-4.956304468581D+02  KE= 1.497599213855D+02
 Symmetry A'   KE= 1.442226385904D+02
 Symmetry A"   KE= 5.537282795153D+00
  Exact polarizability:   0.000   0.000   0.000   0.000   0.000   0.000
 Approx polarizability:  16.776  -0.537   8.163   0.000   0.000   6.102
 Calling FoFJK, ICntrl=    100147 FMM=F ISym2X=1 I1Cent= 0 IOpClX= 0 NMat=1 NMatS=1 NMatT=0.
 ***** Axes restored to original set *****
 -------------------------------------------------------------------
 Center     Atomic                   Forces (Hartrees/Bohr)
 Number     Number              X              Y              Z
 -------------------------------------------------------------------
      1        6           0.042821144    0.026858768    0.000000000
      2        8          -0.072658890   -0.053088826    0.000000000
      3        6           0.023294825   -0.000107466    0.000000000
      4        1           0.000749117   -0.002518066   -0.000482042
      5        1           0.000749117   -0.002518066    0.000482042
      6        1           0.002131284   -0.002457621    0.000000000
      7        1           0.002913403    0.033831277    0.000000000
 -------------------------------------------------------------------
 Cartesian Forces:  Max     0.072658890 RMS     0.024273575
 FormGI is forming the generalized inverse of G from B-inverse, IUseBI=4.

 GradGradGradGradGradGradGradGradGradGradGradGradGradGradGradGradGradGrad
 Berny optimization.
 Internal  Forces:  Max     0.089952285 RMS     0.021916774
 Search for a local minimum.
 Step number   1 out of a maximum of   31
 All quantities printed in internal units (Hartrees-Bohrs-Radians)
 Mixed Optimization -- RFO/linear search
 Second derivative matrix not updated -- analytic derivatives used.
 ITU=  0
     Eigenvalues ---    0.00154   0.05708   0.08267   0.08411   0.15417
     Eigenvalues ---    0.18655   0.19332   0.21867   0.28400   0.45439
     Eigenvalues ---    0.47112   0.48217   0.49552   0.52420   1.41000
 RFO step:  Lambda=-9.27588029D-03 EMin= 1.53719566D-03
 Linear search not attempted -- first point.
 Iteration  1 RMS(Cart)=  0.02874180 RMS(Int)=  0.00015781
 Iteration  2 RMS(Cart)=  0.00017169 RMS(Int)=  0.00003289
 Iteration  3 RMS(Cart)=  0.00000003 RMS(Int)=  0.00003289
 ClnCor:  largest displacement from symmetrization is 2.13D-12 for atom     6.
 Variable       Old X    -DE/DX   Delta X   Delta X   Delta X     New X
                                 (Linear)    (Quad)   (Total)
    R1        2.23341   0.08995   0.00000   0.05969   0.05969   2.29310
    R2        2.84106   0.02787   0.00000   0.05707   0.05707   2.89813
    R3        2.02201   0.03352   0.00000   0.05869   0.05869   2.08069
    R4        2.05413  -0.00010   0.00000  -0.00021  -0.00021   2.05392
    R5        2.05413  -0.00010   0.00000  -0.00021  -0.00021   2.05392
    R6        2.04439   0.00244   0.00000   0.00597   0.00597   2.05036
    A1        2.17440  -0.00008   0.00000  -0.00483  -0.00483   2.16958
    A2        2.09874   0.00554   0.00000   0.01937   0.01937   2.11810
    A3        2.01005  -0.00547   0.00000  -0.01454  -0.01454   1.99551
    A4        1.91109   0.00201   0.00000   0.00659   0.00654   1.91763
    A5        1.91109   0.00201   0.00000   0.00659   0.00654   1.91763
    A6        1.92628   0.00163   0.00000   0.00300   0.00300   1.92928
    A7        1.87333  -0.00028   0.00000   0.01193   0.01182   1.88516
    A8        1.92064  -0.00269   0.00000  -0.01387  -0.01387   1.90677
    A9        1.92064  -0.00269   0.00000  -0.01387  -0.01387   1.90677
    D1        2.11683  -0.00100   0.00000  -0.01106  -0.01110   2.10573
    D2       -2.11683   0.00100   0.00000   0.01106   0.01110  -2.10573
    D3        0.00000   0.00000   0.00000   0.00000   0.00000   0.00000
    D4       -1.02477  -0.00100   0.00000  -0.01106  -0.01110  -1.03586
    D5        1.02477   0.00100   0.00000   0.01106   0.01110   1.03586
    D6        3.14159   0.00000   0.00000   0.00000   0.00000   3.14159
         Item               Value     Threshold  Converged?
 Maximum Force            0.089952     0.000450     NO 
 RMS     Force            0.021917     0.000300     NO 
 Maximum Displacement     0.071403     0.001800     NO 
 RMS     Displacement     0.028693     0.001200     NO 
 Predicted change in Energy=-4.693697D-03
 GradGradGradGradGradGradGradGradGradGradGradGradGradGradGradGradGradGrad

                          Input orientation:                          
 ---------------------------------------------------------------------
 Center     Atomic      Atomic             Coordinates (Angstroms)
 Number     Number       Type             X           Y           Z
 ---------------------------------------------------------------------
      1          6           0       -1.165265    0.898459    0.000000
      2          8           0       -2.158870    0.201873    0.000000
      3          6           0        0.269741    0.357382    0.000000
      4          1           0        0.799279    0.714610   -0.879375
      5          1           0        0.799279    0.714610    0.879375
      6          1           0        0.267472   -0.727619    0.000000
      7          1           0       -1.235835    1.997252    0.000000
 ---------------------------------------------------------------------
                    Distance matrix (angstroms):
                    1          2          3          4          5
     1  C    0.000000
     2  O    1.213459   0.000000
     3  C    1.533625   2.433584   0.000000
     4  H    2.160216   3.128393   1.086887   0.000000
     5  H    2.160216   3.128393   1.086887   1.758749   0.000000
     6  H    2.167225   2.598286   1.085003   1.770916   1.770916
     7  H    1.101056   2.018756   2.226192   2.561281   2.561281
                    6          7
     6  H    0.000000
     7  H    3.112050   0.000000
 Stoichiometry    C2H4O
 Framework group  CS[SG(C2H2O),X(H2)]
 Deg. of freedom    10
 Full point group                 CS      NOp   2
 Largest Abelian subgroup         CS      NOp   2
 Largest concise Abelian subgroup CS      NOp   2
                         Standard orientation:                         
 ---------------------------------------------------------------------
 Center     Atomic      Atomic             Coordinates (Angstroms)
 Number     Number       Type             X           Y           Z
 ---------------------------------------------------------------------
      1          6           0        0.000000    0.474701    0.000000
      2          8           0        1.211150    0.399886    0.000000
      3          6           0       -0.940866   -0.736406    0.000000
      4          1           0       -1.579022   -0.708483    0.879375
      5          1           0       -1.579022   -0.708483   -0.879375
      6          1           0       -0.372046   -1.660352    0.000000
      7          1           0       -0.513919    1.448462    0.000000
 ---------------------------------------------------------------------
 Rotational constants (GHZ):     56.5853626      9.9185199      8.9027008
 Standard basis: STO-3G (5D, 7F)
 There are    15 symmetry adapted cartesian basis functions of A'  symmetry.
 There are     4 symmetry adapted cartesian basis functions of A"  symmetry.
 There are    15 symmetry adapted basis functions of A'  symmetry.
 There are     4 symmetry adapted basis functions of A"  symmetry.
    19 basis functions,    57 primitive gaussians,    19 cartesian basis functions
    12 alpha electrons       12 beta electrons
       nuclear repulsion energy        69.1894768467 Hartrees.
 NAtoms=    7 NActive=    7 NUniq=    6 SFac= 1.36D+00 NAtFMM=   60 NAOKFM=F Big=F
 Integral buffers will be    131072 words long.
 Raffenetti 1 integral format.
 Two-electron integral symmetry is turned on.
 One-electron integrals computed using PRISM.
 NBasis=    19 RedAO= T EigKep=  2.46D-01  NBF=    15     4
 NBsUse=    19 1.00D-06 EigRej= -1.00D+00 NBFU=    15     4
 Initial guess from the checkpoint file:  "acetaldehyde.chk"
 B after Tr=     0.000000    0.000000    0.000000
         Rot=    0.999995    0.000000    0.000000    0.003102 Ang=   0.36 deg.
 Initial guess orbital symmetries:
       Occupied  (A') (A') (A') (A') (A') (A') (A') (A") (A') (A')
                 (A") (A')
       Virtual   (A') (A') (A') (A') (A') (A") (A")
 ExpMin= 1.69D-01 ExpMax= 1.31D+02 ExpMxC= 1.31D+02 IAcc=1 IRadAn=         1 AccDes= 0.00D+00
 Harris functional with IExCor=  205 and IRadAn=       1 diagonalized for initial guess.
 HarFok:  IExCor=  205 AccDes= 0.00D+00 IRadAn=         1 IDoV= 1 UseB2=F ITyADJ=14
 ICtDFT=  3500011 ScaDFX=  1.000000  1.000000  1.000000  1.000000
 FoFCou: FMM=F IPFlag=           0 FMFlag=      100000 FMFlg1=           0
         NFxFlg=           0 DoJE=T BraDBF=F KetDBF=T FulRan=T
         wScrn=  0.000000 ICntrl=     500 IOpCl=  0 I1Cent=   200000004 NGrid=           0
         NMat0=    1 NMatS0=      1 NMatT0=    0 NMatD0=    1 NMtDS0=    0 NMtDT0=    0
 Petite list used in FoFCou.
 Keep R1 ints in memory in symmetry-blocked form, NReq=847207.
 Requested convergence on RMS density matrix=1.00D-08 within 128 cycles.
 Requested convergence on MAX density matrix=1.00D-06.
 Requested convergence on             energy=1.00D-06.
 No special actions if energy rises.
 SCF Done:  E(RHF) =  -150.945946815     A.U. after   10 cycles
            NFock= 10  Conv=0.42D-08     -V/T= 2.0088
 Calling FoFJK, ICntrl=      2127 FMM=F ISym2X=1 I1Cent= 0 IOpClX= 0 NMat=1 NMatS=1 NMatT=0.
 ***** Axes restored to original set *****
 -------------------------------------------------------------------
 Center     Atomic                   Forces (Hartrees/Bohr)
 Number     Number              X              Y              Z
 -------------------------------------------------------------------
      1        6           0.004384154    0.002715032    0.000000000
      2        8          -0.006838208   -0.005086104    0.000000000
      3        6           0.002111665   -0.000137265    0.000000000
      4        1          -0.000001185   -0.000189931   -0.000083167
      5        1          -0.000001185   -0.000189931    0.000083167
      6        1           0.000079014   -0.000080984    0.000000000
      7        1           0.000265745    0.002969184    0.000000000
 -------------------------------------------------------------------
 Cartesian Forces:  Max     0.006838208 RMS     0.002316454

 GradGradGradGradGradGradGradGradGradGradGradGradGradGradGradGradGradGrad
 Berny optimization.
 Using GEDIIS/GDIIS optimizer.
 FormGI is forming the generalized inverse of G from B-inverse, IUseBI=4.
 Internal  Forces:  Max     0.008518941 RMS     0.002034478
 Search for a local minimum.
 Step number   2 out of a maximum of   31
 All quantities printed in internal units (Hartrees-Bohrs-Radians)
 Mixed Optimization -- RFO/linear search
 Update second derivatives using D2CorX and points    1    2
 DE= -4.94D-03 DEPred=-4.69D-03 R= 1.05D+00
 TightC=F SS=  1.41D+00  RLast= 1.10D-01 DXNew= 5.0454D-01 3.2893D-01
 Trust test= 1.05D+00 RLast= 1.10D-01 DXMaxT set to 3.29D-01
 ITU=  1  0
 Use linear search instead of GDIIS.
     Eigenvalues ---    0.00154   0.05708   0.08267   0.08415   0.15424
     Eigenvalues ---    0.18655   0.19332   0.21866   0.28392   0.45101
     Eigenvalues ---    0.47110   0.48217   0.49552   0.51857   1.32109
 RFO step:  Lambda=-8.94049570D-07 EMin= 1.53719566D-03
 Quartic linear search produced a step of  0.10931.
 Iteration  1 RMS(Cart)=  0.00306404 RMS(Int)=  0.00000492
 Iteration  2 RMS(Cart)=  0.00000256 RMS(Int)=  0.00000434
 Iteration  3 RMS(Cart)=  0.00000000 RMS(Int)=  0.00000434
 ClnCor:  largest displacement from symmetrization is 8.92D-12 for atom     6.
 Variable       Old X    -DE/DX   Delta X   Delta X   Delta X     New X
                                 (Linear)    (Quad)   (Total)
    R1        2.29310   0.00852   0.00653   0.00003   0.00656   2.29966
    R2        2.89813   0.00226   0.00624  -0.00017   0.00606   2.90420
    R3        2.08069   0.00295   0.00642   0.00002   0.00643   2.08713
    R4        2.05392   0.00000  -0.00002  -0.00002  -0.00004   2.05388
    R5        2.05392   0.00000  -0.00002  -0.00002  -0.00004   2.05388
    R6        2.05036   0.00008   0.00065  -0.00024   0.00041   2.05077
    A1        2.16958  -0.00005  -0.00053  -0.00040  -0.00093   2.16865
    A2        2.11810   0.00050   0.00212   0.00026   0.00237   2.12048
    A3        1.99551  -0.00045  -0.00159   0.00015  -0.00144   1.99406
    A4        1.91763   0.00010   0.00071  -0.00009   0.00062   1.91824
    A5        1.91763   0.00010   0.00071  -0.00009   0.00062   1.91824
    A6        1.92928   0.00001   0.00033  -0.00111  -0.00078   1.92850
    A7        1.88516   0.00007   0.00129   0.00164   0.00292   1.88808
    A8        1.90677  -0.00014  -0.00152  -0.00014  -0.00166   1.90511
    A9        1.90677  -0.00014  -0.00152  -0.00014  -0.00166   1.90511
    D1        2.10573  -0.00010  -0.00121  -0.00095  -0.00217   2.10356
    D2       -2.10573   0.00010   0.00121   0.00095   0.00217  -2.10356
    D3        0.00000   0.00000   0.00000   0.00000   0.00000   0.00000
    D4       -1.03586  -0.00010  -0.00121  -0.00095  -0.00217  -1.03803
    D5        1.03586   0.00010   0.00121   0.00095   0.00217   1.03803
    D6        3.14159   0.00000   0.00000   0.00000   0.00000   3.14159
         Item               Value     Threshold  Converged?
 Maximum Force            0.008519     0.000450     NO 
 RMS     Force            0.002034     0.000300     NO 
 Maximum Displacement     0.007952     0.001800     NO 
 RMS     Displacement     0.003063     0.001200     NO 
 Predicted change in Energy=-4.123394D-05
 GradGradGradGradGradGradGradGradGradGradGradGradGradGradGradGradGradGrad

                          Input orientation:                          
 ---------------------------------------------------------------------
 Center     Atomic      Atomic             Coordinates (Angstroms)
 Number     Number       Type             X           Y           Z
 ---------------------------------------------------------------------
      1          6           0       -1.166874    0.899209    0.000000
      2          8           0       -2.162283    0.199156    0.000000
      3          6           0        0.271433    0.357792    0.000000
      4          1           0        0.800642    0.713189   -0.880288
      5          1           0        0.800642    0.713189    0.880288
      6          1           0        0.268918   -0.727426    0.000000
      7          1           0       -1.236677    2.001460    0.000000
 ---------------------------------------------------------------------
                    Distance matrix (angstroms):
                    1          2          3          4          5
     1  C    0.000000
     2  O    1.216928   0.000000
     3  C    1.536834   2.438881   0.000000
     4  H    2.163476   3.133379   1.086865   0.000000
     5  H    2.163476   3.133379   1.086865   1.760576   0.000000
     6  H    2.169663   2.601787   1.085221   1.770031   1.770031
     7  H    1.104459   2.026091   2.230705   2.566168   2.566168
                    6          7
     6  H    0.000000
     7  H    3.116671   0.000000
 Stoichiometry    C2H4O
 Framework group  CS[SG(C2H2O),X(H2)]
 Deg. of freedom    10
 Full point group                 CS      NOp   2
 Largest Abelian subgroup         CS      NOp   2
 Largest concise Abelian subgroup CS      NOp   2
                         Standard orientation:                         
 ---------------------------------------------------------------------
 Center     Atomic      Atomic             Coordinates (Angstroms)
 Number     Number       Type             X           Y           Z
 ---------------------------------------------------------------------
      1          6           0        0.000000    0.476139    0.000000
      2          8           0        1.214478    0.398949    0.000000
      3          6           0       -0.943865   -0.736701    0.000000
      4          1           0       -1.580775   -0.709977    0.880288
      5          1           0       -1.580775   -0.709977   -0.880288
      6          1           0       -0.374997   -1.660872    0.000000
      7          1           0       -0.516088    1.452603    0.000000
 ---------------------------------------------------------------------
 Rotational constants (GHZ):     56.3236673      9.8790060      8.8654038
 Standard basis: STO-3G (5D, 7F)
 There are    15 symmetry adapted cartesian basis functions of A'  symmetry.
 There are     4 symmetry adapted cartesian basis functions of A"  symmetry.
 There are    15 symmetry adapted basis functions of A'  symmetry.
 There are     4 symmetry adapted basis functions of A"  symmetry.
    19 basis functions,    57 primitive gaussians,    19 cartesian basis functions
    12 alpha electrons       12 beta electrons
       nuclear repulsion energy        69.0477348152 Hartrees.
 NAtoms=    7 NActive=    7 NUniq=    6 SFac= 1.36D+00 NAtFMM=   60 NAOKFM=F Big=F
 Integral buffers will be    131072 words long.
 Raffenetti 1 integral format.
 Two-electron integral symmetry is turned on.
 One-electron integrals computed using PRISM.
 NBasis=    19 RedAO= T EigKep=  2.46D-01  NBF=    15     4
 NBsUse=    19 1.00D-06 EigRej= -1.00D+00 NBFU=    15     4
 Initial guess from the checkpoint file:  "acetaldehyde.chk"
 B after Tr=     0.000000    0.000000    0.000000
         Rot=    1.000000    0.000000    0.000000    0.000478 Ang=   0.05 deg.
 Initial guess orbital symmetries:
       Occupied  (A') (A') (A') (A') (A') (A') (A') (A") (A') (A')
                 (A") (A')
       Virtual   (A') (A') (A') (A') (A') (A") (A")
 Keep R1 ints in memory in symmetry-blocked form, NReq=847207.
 Requested convergence on RMS density matrix=1.00D-08 within 128 cycles.
 Requested convergence on MAX density matrix=1.00D-06.
 Requested convergence on             energy=1.00D-06.
 No special actions if energy rises.
 SCF Done:  E(RHF) =  -150.945992462     A.U. after    9 cycles
            NFock=  9  Conv=0.34D-08     -V/T= 2.0088
 Calling FoFJK, ICntrl=      2127 FMM=F ISym2X=1 I1Cent= 0 IOpClX= 0 NMat=1 NMatS=1 NMatT=0.
 ***** Axes restored to original set *****
 -------------------------------------------------------------------
 Center     Atomic                   Forces (Hartrees/Bohr)
 Number     Number              X              Y              Z
 -------------------------------------------------------------------
      1        6           0.000724456    0.000354877    0.000000000
      2        8          -0.000437165   -0.000245465    0.000000000
      3        6          -0.000213830   -0.000290357    0.000000000
      4        1           0.000027852    0.000138614    0.000069424
      5        1           0.000027852    0.000138614   -0.000069424
      6        1          -0.000062867    0.000041009    0.000000000
      7        1          -0.000066299   -0.000137293    0.000000000
 -------------------------------------------------------------------
 Cartesian Forces:  Max     0.000724456 RMS     0.000229976

 GradGradGradGradGradGradGradGradGradGradGradGradGradGradGradGradGradGrad
 Berny optimization.
 Using GEDIIS/GDIIS optimizer.
 FormGI is forming the generalized inverse of G from B-inverse, IUseBI=4.
 Internal  Forces:  Max     0.000498794 RMS     0.000134944
 Search for a local minimum.
 Step number   3 out of a maximum of   31
 All quantities printed in internal units (Hartrees-Bohrs-Radians)
 Mixed Optimization -- En-DIIS/RFO-DIIS
 Update second derivatives using D2CorX and points    1    2    3
 DE= -4.56D-05 DEPred=-4.12D-05 R= 1.11D+00
 TightC=F SS=  1.41D+00  RLast= 1.28D-02 DXNew= 5.5320D-01 3.8425D-02
 Trust test= 1.11D+00 RLast= 1.28D-02 DXMaxT set to 3.29D-01
 ITU=  1  1  0
 Use linear search instead of GDIIS.
     Eigenvalues ---    0.00154   0.05708   0.08267   0.08431   0.15434
     Eigenvalues ---    0.18648   0.19332   0.21860   0.28376   0.44642
     Eigenvalues ---    0.47108   0.48217   0.49547   0.51163   1.23003
 RFO step:  Lambda=-9.88807577D-07 EMin= 1.53719566D-03
 Quartic linear search produced a step of -0.00560.
 Iteration  1 RMS(Cart)=  0.00042834 RMS(Int)=  0.00000025
 Iteration  2 RMS(Cart)=  0.00000020 RMS(Int)=  0.00000014
 ClnCor:  largest displacement from symmetrization is 9.43D-12 for atom     6.
 Variable       Old X    -DE/DX   Delta X   Delta X   Delta X     New X
                                 (Linear)    (Quad)   (Total)
    R1        2.29966   0.00050  -0.00004   0.00046   0.00042   2.30008
    R2        2.90420  -0.00022  -0.00003  -0.00050  -0.00053   2.90366
    R3        2.08713  -0.00013  -0.00004  -0.00022  -0.00025   2.08687
    R4        2.05388   0.00000   0.00000   0.00004   0.00004   2.05391
    R5        2.05388   0.00000   0.00000   0.00004   0.00004   2.05391
    R6        2.05077  -0.00004   0.00000  -0.00013  -0.00013   2.05064
    A1        2.16865   0.00003   0.00001   0.00009   0.00010   2.16875
    A2        2.12048  -0.00009  -0.00001  -0.00048  -0.00050   2.11998
    A3        1.99406   0.00007   0.00001   0.00039   0.00040   1.99446
    A4        1.91824  -0.00004   0.00000  -0.00032  -0.00032   1.91792
    A5        1.91824  -0.00004   0.00000  -0.00032  -0.00032   1.91792
    A6        1.92850  -0.00003   0.00000   0.00015   0.00016   1.92866
    A7        1.88808  -0.00008  -0.00002  -0.00112  -0.00114   1.88694
    A8        1.90511   0.00010   0.00001   0.00080   0.00081   1.90592
    A9        1.90511   0.00010   0.00001   0.00080   0.00081   1.90592
    D1        2.10356   0.00008   0.00001   0.00088   0.00090   2.10446
    D2       -2.10356  -0.00008  -0.00001  -0.00088  -0.00090  -2.10446
    D3        0.00000   0.00000   0.00000   0.00000   0.00000   0.00000
    D4       -1.03803   0.00008   0.00001   0.00088   0.00090  -1.03713
    D5        1.03803  -0.00008  -0.00001  -0.00088  -0.00090   1.03713
    D6        3.14159   0.00000   0.00000   0.00000   0.00000   3.14159
         Item               Value     Threshold  Converged?
 Maximum Force            0.000499     0.000450     NO 
 RMS     Force            0.000135     0.000300     YES
 Maximum Displacement     0.000807     0.001800     YES
 RMS     Displacement     0.000428     0.001200     YES
 Predicted change in Energy=-4.953270D-07
 GradGradGradGradGradGradGradGradGradGradGradGradGradGradGradGradGradGrad

                          Input orientation:                          
 ---------------------------------------------------------------------
 Center     Atomic      Atomic             Coordinates (Angstroms)
 Number     Number       Type             X           Y           Z
 ---------------------------------------------------------------------
      1          6           0       -1.166572    0.899114    0.000000
      2          8           0       -2.162411    0.199282    0.000000
      3          6           0        0.271334    0.357433    0.000000
      4          1           0        0.800630    0.713616   -0.879941
      5          1           0        0.800630    0.713616    0.879941
      6          1           0        0.268717   -0.727715    0.000000
      7          1           0       -1.236527    2.001222    0.000000
 ---------------------------------------------------------------------
                    Distance matrix (angstroms):
                    1          2          3          4          5
     1  C    0.000000
     2  O    1.217152   0.000000
     3  C    1.536552   2.438878   0.000000
     4  H    2.163005   3.133440   1.086884   0.000000
     5  H    2.163005   3.133440   1.086884   1.759881   0.000000
     6  H    2.169476   2.601865   1.085151   1.770498   1.770498
     7  H    1.104326   2.025895   2.230624   2.565586   2.565586
                    6          7
     6  H    0.000000
     7  H    3.116545   0.000000
 Stoichiometry    C2H4O
 Framework group  CS[SG(C2H2O),X(H2)]
 Deg. of freedom    10
 Full point group                 CS      NOp   2
 Largest Abelian subgroup         CS      NOp   2
 Largest concise Abelian subgroup CS      NOp   2
                         Standard orientation:                         
 ---------------------------------------------------------------------
 Center     Atomic      Atomic             Coordinates (Angstroms)
 Number     Number       Type             X           Y           Z
 ---------------------------------------------------------------------
      1          6           0        0.000000    0.475952    0.000000
      2          8           0        1.214691    0.398579    0.000000
      3          6           0       -0.943980   -0.736439    0.000000
      4          1           0       -1.581362   -0.708779    0.879941
      5          1           0       -1.581362   -0.708779   -0.879941
      6          1           0       -0.375516   -1.660777    0.000000
      7          1           0       -0.515405    1.452626    0.000000
 ---------------------------------------------------------------------
 Rotational constants (GHZ):     56.3340666      9.8793257      8.8655358
 Standard basis: STO-3G (5D, 7F)
 There are    15 symmetry adapted cartesian basis functions of A'  symmetry.
 There are     4 symmetry adapted cartesian basis functions of A"  symmetry.
 There are    15 symmetry adapted basis functions of A'  symmetry.
 There are     4 symmetry adapted basis functions of A"  symmetry.
    19 basis functions,    57 primitive gaussians,    19 cartesian basis functions
    12 alpha electrons       12 beta electrons
       nuclear repulsion energy        69.0476032901 Hartrees.
 NAtoms=    7 NActive=    7 NUniq=    6 SFac= 1.36D+00 NAtFMM=   60 NAOKFM=F Big=F
 Integral buffers will be    131072 words long.
 Raffenetti 1 integral format.
 Two-electron integral symmetry is turned on.
 One-electron integrals computed using PRISM.
 NBasis=    19 RedAO= T EigKep=  2.46D-01  NBF=    15     4
 NBsUse=    19 1.00D-06 EigRej= -1.00D+00 NBFU=    15     4
 Initial guess from the checkpoint file:  "acetaldehyde.chk"
 B after Tr=     0.000000    0.000000    0.000000
         Rot=    1.000000    0.000000    0.000000    0.000186 Ang=   0.02 deg.
 Initial guess orbital symmetries:
       Occupied  (A') (A') (A') (A') (A') (A') (A') (A") (A') (A')
                 (A") (A')
       Virtual   (A') (A') (A') (A') (A') (A") (A")
 Keep R1 ints in memory in symmetry-blocked form, NReq=847207.
 Requested convergence on RMS density matrix=1.00D-08 within 128 cycles.
 Requested convergence on MAX density matrix=1.00D-06.
 Requested convergence on             energy=1.00D-06.
 No special actions if energy rises.
 SCF Done:  E(RHF) =  -150.945992993     A.U. after    7 cycles
            NFock=  7  Conv=0.82D-08     -V/T= 2.0088
 Calling FoFJK, ICntrl=      2127 FMM=F ISym2X=1 I1Cent= 0 IOpClX= 0 NMat=1 NMatS=1 NMatT=0.
 ***** Axes restored to original set *****
 -------------------------------------------------------------------
 Center     Atomic                   Forces (Hartrees/Bohr)
 Number     Number              X              Y              Z
 -------------------------------------------------------------------
      1        6           0.000101816    0.000058518    0.000000000
      2        8          -0.000063330   -0.000039223    0.000000000
      3        6          -0.000032789    0.000005306    0.000000000
      4        1          -0.000001855    0.000001630    0.000000961
      5        1          -0.000001855    0.000001630   -0.000000961
      6        1           0.000000503    0.000002758    0.000000000
      7        1          -0.000002491   -0.000030619    0.000000000
 -------------------------------------------------------------------
 Cartesian Forces:  Max     0.000101816 RMS     0.000031929

 GradGradGradGradGradGradGradGradGradGradGradGradGradGradGradGradGradGrad
 Berny optimization.
 Using GEDIIS/GDIIS optimizer.
 FormGI is forming the generalized inverse of G from B-inverse, IUseBI=4.
 Internal  Forces:  Max     0.000074367 RMS     0.000019492
 Search for a local minimum.
 Step number   4 out of a maximum of   31
 All quantities printed in internal units (Hartrees-Bohrs-Radians)
 Mixed Optimization -- En-DIIS/RFO-DIIS
 Swapping is turned off.
 Update second derivatives using D2CorX and points    1    2    3    4
 DE= -5.31D-07 DEPred=-4.95D-07 R= 1.07D+00
 Trust test= 1.07D+00 RLast= 2.65D-03 DXMaxT set to 3.29D-01
 ITU=  0  1  1  0
     Eigenvalues ---    0.00154   0.05708   0.08267   0.08566   0.15490
     Eigenvalues ---    0.18702   0.19332   0.21589   0.28330   0.43195
     Eigenvalues ---    0.47105   0.48217   0.49555   0.51054   1.17047
 En-DIIS/RFO-DIIS IScMMF=        0 using points:     4    3
 RFO step:  Lambda=-9.11231937D-09.
 DidBck=F Rises=F RFO-DIIS coefs:    1.07761   -0.07761
 Iteration  1 RMS(Cart)=  0.00002944 RMS(Int)=  0.00000001
 Iteration  2 RMS(Cart)=  0.00000000 RMS(Int)=  0.00000001
 ClnCor:  largest displacement from symmetrization is 4.56D-12 for atom     6.
 Variable       Old X    -DE/DX   Delta X   Delta X   Delta X     New X
                                 (Linear)    (Quad)   (Total)
    R1        2.30008   0.00007   0.00003   0.00004   0.00007   2.30015
    R2        2.90366  -0.00004  -0.00004  -0.00006  -0.00010   2.90356
    R3        2.08687  -0.00003  -0.00002  -0.00005  -0.00006   2.08681
    R4        2.05391   0.00000   0.00000   0.00000   0.00000   2.05391
    R5        2.05391   0.00000   0.00000   0.00000   0.00000   2.05391
    R6        2.05064   0.00000  -0.00001   0.00000  -0.00001   2.05063
    A1        2.16875   0.00000   0.00001   0.00001   0.00001   2.16876
    A2        2.11998  -0.00001  -0.00004  -0.00001  -0.00005   2.11993
    A3        1.99446   0.00000   0.00003   0.00000   0.00003   1.99449
    A4        1.91792   0.00000  -0.00003   0.00001  -0.00001   1.91791
    A5        1.91792   0.00000  -0.00003   0.00001  -0.00001   1.91791
    A6        1.92866   0.00000   0.00001   0.00001   0.00003   1.92868
    A7        1.88694   0.00000  -0.00009   0.00007  -0.00002   1.88692
    A8        1.90592   0.00000   0.00006  -0.00005   0.00001   1.90593
    A9        1.90592   0.00000   0.00006  -0.00005   0.00001   1.90593
    D1        2.10446   0.00000   0.00007  -0.00005   0.00002   2.10448
    D2       -2.10446   0.00000  -0.00007   0.00005  -0.00002  -2.10448
    D3        0.00000   0.00000   0.00000   0.00000   0.00000   0.00000
    D4       -1.03713   0.00000   0.00007  -0.00005   0.00002  -1.03711
    D5        1.03713   0.00000  -0.00007   0.00005  -0.00002   1.03711
    D6        3.14159   0.00000   0.00000   0.00000   0.00000   3.14159
         Item               Value     Threshold  Converged?
 Maximum Force            0.000074     0.000450     YES
 RMS     Force            0.000019     0.000300     YES
 Maximum Displacement     0.000079     0.001800     YES
 RMS     Displacement     0.000029     0.001200     YES
 Predicted change in Energy=-5.869618D-09
 Optimization completed.
    -- Stationary point found.
                           ----------------------------
                           !   Optimized Parameters   !
                           ! (Angstroms and Degrees)  !
 --------------------------                            --------------------------
 ! Name  Definition              Value          Derivative Info.                !
 --------------------------------------------------------------------------------
 ! R1    R(1,2)                  1.2172         -DE/DX =    0.0001              !
 ! R2    R(1,3)                  1.5366         -DE/DX =    0.0                 !
 ! R3    R(1,7)                  1.1043         -DE/DX =    0.0                 !
 ! R4    R(3,4)                  1.0869         -DE/DX =    0.0                 !
 ! R5    R(3,5)                  1.0869         -DE/DX =    0.0                 !
 ! R6    R(3,6)                  1.0852         -DE/DX =    0.0                 !
 ! A1    A(2,1,3)              124.26           -DE/DX =    0.0                 !
 ! A2    A(2,1,7)              121.466          -DE/DX =    0.0                 !
 ! A3    A(3,1,7)              114.274          -DE/DX =    0.0                 !
 ! A4    A(1,3,4)              109.8886         -DE/DX =    0.0                 !
 ! A5    A(1,3,5)              109.8886         -DE/DX =    0.0                 !
 ! A6    A(1,3,6)              110.504          -DE/DX =    0.0                 !
 ! A7    A(4,3,5)              108.1136         -DE/DX =    0.0                 !
 ! A8    A(4,3,6)              109.201          -DE/DX =    0.0                 !
 ! A9    A(5,3,6)              109.201          -DE/DX =    0.0                 !
 ! D1    D(2,1,3,4)            120.5765         -DE/DX =    0.0                 !
 ! D2    D(2,1,3,5)           -120.5765         -DE/DX =    0.0                 !
 ! D3    D(2,1,3,6)              0.0            -DE/DX =    0.0                 !
 ! D4    D(7,1,3,4)            -59.4235         -DE/DX =    0.0                 !
 ! D5    D(7,1,3,5)             59.4235         -DE/DX =    0.0                 !
 ! D6    D(7,1,3,6)            180.0            -DE/DX =    0.0                 !
 --------------------------------------------------------------------------------
 GradGradGradGradGradGradGradGradGradGradGradGradGradGradGradGradGradGrad

                          Input orientation:                          
 ---------------------------------------------------------------------
 Center     Atomic      Atomic             Coordinates (Angstroms)
 Number     Number       Type             X           Y           Z
 ---------------------------------------------------------------------
      1          6           0       -1.166572    0.899114    0.000000
      2          8           0       -2.162411    0.199282    0.000000
      3          6           0        0.271334    0.357433    0.000000
      4          1           0        0.800630    0.713616   -0.879941
      5          1           0        0.800630    0.713616    0.879941
      6          1           0        0.268717   -0.727715    0.000000
      7          1           0       -1.236527    2.001222    0.000000
 ---------------------------------------------------------------------
                    Distance matrix (angstroms):
                    1          2          3          4          5
     1  C    0.000000
     2  O    1.217152   0.000000
     3  C    1.536552   2.438878   0.000000
     4  H    2.163005   3.133440   1.086884   0.000000
     5  H    2.163005   3.133440   1.086884   1.759881   0.000000
     6  H    2.169476   2.601865   1.085151   1.770498   1.770498
     7  H    1.104326   2.025895   2.230624   2.565586   2.565586
                    6          7
     6  H    0.000000
     7  H    3.116545   0.000000
 Stoichiometry    C2H4O
 Framework group  CS[SG(C2H2O),X(H2)]
 Deg. of freedom    10
 Full point group                 CS      NOp   2
 Largest Abelian subgroup         CS      NOp   2
 Largest concise Abelian subgroup CS      NOp   2
                         Standard orientation:                         
 ---------------------------------------------------------------------
 Center     Atomic      Atomic             Coordinates (Angstroms)
 Number     Number       Type             X           Y           Z
 ---------------------------------------------------------------------
      1          6           0        0.000000    0.475952    0.000000
      2          8           0        1.214691    0.398579    0.000000
      3          6           0       -0.943980   -0.736439    0.000000
      4          1           0       -1.581362   -0.708779    0.879941
      5          1           0       -1.581362   -0.708779   -0.879941
      6          1           0       -0.375516   -1.660777    0.000000
      7          1           0       -0.515405    1.452626    0.000000
 ---------------------------------------------------------------------
 Rotational constants (GHZ):     56.3340666      9.8793257      8.8655358

 **********************************************************************

            Population analysis using the SCF density.

 **********************************************************************

 Orbital symmetries:
       Occupied  (A') (A') (A') (A') (A') (A') (A') (A") (A') (A')
                 (A") (A')
       Virtual   (A") (A') (A') (A") (A') (A') (A')
 The electronic state is 1-A'.
 Alpha  occ. eigenvalues --  -20.29083 -11.12248 -11.05439  -1.32841  -0.95920
 Alpha  occ. eigenvalues --   -0.74641  -0.60691  -0.56017  -0.54307  -0.50181
 Alpha  occ. eigenvalues --   -0.41561  -0.33662
 Alpha virt. eigenvalues --    0.29118   0.61881   0.66159   0.70959   0.73014
 Alpha virt. eigenvalues --    0.75708   0.97027
          Condensed to atoms (all electrons):
               1          2          3          4          5          6
     1  C    4.743812   0.444358   0.354897  -0.019356  -0.019356  -0.019628
     2  O    0.444358   7.812843  -0.023263   0.000270   0.000270  -0.000818
     3  C    0.354897  -0.023263   4.766038   0.381236   0.381236   0.383161
     4  H   -0.019356   0.000270   0.381236   0.605778  -0.020493  -0.020085
     5  H   -0.019356   0.000270   0.381236  -0.020493   0.605778  -0.020085
     6  H   -0.019628  -0.000818   0.383161  -0.020085  -0.020085   0.599108
     7  H    0.369175  -0.024349  -0.036107  -0.000653  -0.000653   0.001514
               7
     1  C    0.369175
     2  O   -0.024349
     3  C   -0.036107
     4  H   -0.000653
     5  H   -0.000653
     6  H    0.001514
     7  H    0.644095
 Mulliken charges:
               1
     1  C    0.146097
     2  O   -0.209312
     3  C   -0.207198
     4  H    0.073302
     5  H    0.073302
     6  H    0.076831
     7  H    0.046977
 Sum of Mulliken charges =   0.00000
 Mulliken charges with hydrogens summed into heavy atoms:
               1
     1  C    0.193074
     2  O   -0.209312
     3  C    0.016238
 Electronic spatial extent (au):  <R**2>=            166.9553
 Charge=              0.0000 electrons
 Dipole moment (field-independent basis, Debye):
    X=             -1.7775    Y=             -0.1004    Z=              0.0000  Tot=              1.7803
 Quadrupole moment (field-independent basis, Debye-Ang):
   XX=            -19.1316   YY=            -16.7199   ZZ=            -16.4458
   XY=             -0.6726   XZ=              0.0000   YZ=              0.0000
 Traceless Quadrupole moment (field-independent basis, Debye-Ang):
   XX=             -1.6992   YY=              0.7125   ZZ=              0.9867
   XY=             -0.6726   XZ=              0.0000   YZ=              0.0000
 Octapole moment (field-independent basis, Debye-Ang**2):
  XXX=              2.6320  YYY=              2.0245  ZZZ=              0.0000  XYY=              1.8454
  XXY=             -0.2878  XXZ=              0.0000  XZZ=              1.9615  YZZ=              0.7787
  YYZ=              0.0000  XYZ=              0.0000
 Hexadecapole moment (field-independent basis, Debye-Ang**3):
 XXXX=           -106.1610 YYYY=            -63.6513 ZZZZ=            -18.4742 XXXY=            -22.5569
 XXXZ=              0.0000 YYYX=            -23.2370 YYYZ=              0.0000 ZZZX=              0.0000
 ZZZY=              0.0000 XXYY=            -29.0715 XXZZ=            -18.0806 YYZZ=            -14.4518
 XXYZ=              0.0000 YYXZ=              0.0000 ZZXY=             -6.4751
 N-N= 6.904760329014D+01 E-N=-4.926783168508D+02  KE= 1.496229323693D+02
 Symmetry A'   KE= 1.440627312084D+02
 Symmetry A"   KE= 5.560201160909D+00
 1\1\GINC-LEGION\FOpt\RHF\STO-3G\C2H4O1\HIMANSHU\17-Feb-2025\0\\# opt=c
 alcfc freq=raman hf/sto-3g geom=connectivity\\Title Card Required\\0,1
 \C,-1.1665719698,0.899113774,0.\O,-2.1624107965,0.1992817531,0.\C,0.27
 13336711,0.3574330453,0.\H,0.8006301783,0.7136162169,-0.8799407285\H,0
 .8006301783,0.7136162169,0.8799407285\H,0.268716879,-0.7277145777,0.\H
 ,-1.2365268004,2.0012216514,0.\\Version=AM64L-G09RevD.01\State=1-A'\HF
 =-150.945993\RMSD=8.231e-09\RMSF=3.193e-05\Dipole=0.6171705,0.3312045,
 0.\Quadrupole=-1.2202689,0.4867138,0.7335551,-0.5704096,0.,0.\PG=CS [S
 G(C2H2O1),X(H2)]\\@


 THE CAUTIOUS SELDOM ERR...CONFUCIUS                   
 Job cpu time:       0 days  0 hours  0 minutes  3.6 seconds.
 File lengths (MBytes):  RWF=      5 Int=      0 D2E=      0 Chk=      1 Scr=      1
 Normal termination of Gaussian 09 at Mon Feb 17 23:54:30 2025.
 Link1:  Proceeding to internal job step number  2.
 ---------------------------------------------------------------
 #N Geom=AllCheck Guess=TCheck SCRF=Check GenChk RHF/STO-3G Freq
 ---------------------------------------------------------------
 1/10=4,29=7,30=1,38=1,40=1/1,3;
 2/12=2,40=1/2;
 3/6=3,11=1,14=-4,16=1,25=1,30=1,70=2,71=2,116=1,140=1/1,2,3;
 4/5=101/1;
 5/5=2,98=1/2;
 8/6=4,10=90,11=11/1;
 10/13=10,15=4/2;
 11/6=3,8=1,9=11,15=111,16=1/1,2,10;
 10/6=1/2;
 6/7=2,8=2,9=2,10=2,18=1,28=1/1;
 7/8=1,10=1,25=1/1,2,3,16;
 1/10=4,30=1/3;
 99//99;
 Structure from the checkpoint file:  "acetaldehyde.chk"
 -------------------
 Title Card Required
 -------------------
 Charge =  0 Multiplicity = 1
 Redundant internal coordinates found in file.
 C,0,-1.1665719698,0.899113774,0.
 O,0,-2.1624107965,0.1992817531,0.
 C,0,0.2713336711,0.3574330453,0.
 H,0,0.8006301783,0.7136162169,-0.8799407285
 H,0,0.8006301783,0.7136162169,0.8799407285
 H,0,0.268716879,-0.7277145777,0.
 H,0,-1.2365268004,2.0012216514,0.
 Recover connectivity data from disk.

 GradGradGradGradGradGradGradGradGradGradGradGradGradGradGradGradGradGrad
 Berny optimization.
 Initialization pass.
                           ----------------------------
                           !    Initial Parameters    !
                           ! (Angstroms and Degrees)  !
 --------------------------                            --------------------------
 ! Name  Definition              Value          Derivative Info.                !
 --------------------------------------------------------------------------------
 ! R1    R(1,2)                  1.2172         calculate D2E/DX2 analytically  !
 ! R2    R(1,3)                  1.5366         calculate D2E/DX2 analytically  !
 ! R3    R(1,7)                  1.1043         calculate D2E/DX2 analytically  !
 ! R4    R(3,4)                  1.0869         calculate D2E/DX2 analytically  !
 ! R5    R(3,5)                  1.0869         calculate D2E/DX2 analytically  !
 ! R6    R(3,6)                  1.0852         calculate D2E/DX2 analytically  !
 ! A1    A(2,1,3)              124.26           calculate D2E/DX2 analytically  !
 ! A2    A(2,1,7)              121.466          calculate D2E/DX2 analytically  !
 ! A3    A(3,1,7)              114.274          calculate D2E/DX2 analytically  !
 ! A4    A(1,3,4)              109.8886         calculate D2E/DX2 analytically  !
 ! A5    A(1,3,5)              109.8886         calculate D2E/DX2 analytically  !
 ! A6    A(1,3,6)              110.504          calculate D2E/DX2 analytically  !
 ! A7    A(4,3,5)              108.1136         calculate D2E/DX2 analytically  !
 ! A8    A(4,3,6)              109.201          calculate D2E/DX2 analytically  !
 ! A9    A(5,3,6)              109.201          calculate D2E/DX2 analytically  !
 ! D1    D(2,1,3,4)            120.5765         calculate D2E/DX2 analytically  !
 ! D2    D(2,1,3,5)           -120.5765         calculate D2E/DX2 analytically  !
 ! D3    D(2,1,3,6)              0.0            calculate D2E/DX2 analytically  !
 ! D4    D(7,1,3,4)            -59.4235         calculate D2E/DX2 analytically  !
 ! D5    D(7,1,3,5)             59.4235         calculate D2E/DX2 analytically  !
 ! D6    D(7,1,3,6)            180.0            calculate D2E/DX2 analytically  !
 --------------------------------------------------------------------------------
 Trust Radius=3.00D-01 FncErr=1.00D-07 GrdErr=1.00D-07
 Number of steps in this run=      2 maximum allowed number of steps=      2.
 GradGradGradGradGradGradGradGradGradGradGradGradGradGradGradGradGradGrad

                          Input orientation:                          
 ---------------------------------------------------------------------
 Center     Atomic      Atomic             Coordinates (Angstroms)
 Number     Number       Type             X           Y           Z
 ---------------------------------------------------------------------
      1          6           0       -1.166572    0.899114    0.000000
      2          8           0       -2.162411    0.199282    0.000000
      3          6           0        0.271334    0.357433    0.000000
      4          1           0        0.800630    0.713616   -0.879941
      5          1           0        0.800630    0.713616    0.879941
      6          1           0        0.268717   -0.727715    0.000000
      7          1           0       -1.236527    2.001222    0.000000
 ---------------------------------------------------------------------
                    Distance matrix (angstroms):
                    1          2          3          4          5
     1  C    0.000000
     2  O    1.217152   0.000000
     3  C    1.536552   2.438878   0.000000
     4  H    2.163005   3.133440   1.086884   0.000000
     5  H    2.163005   3.133440   1.086884   1.759881   0.000000
     6  H    2.169476   2.601865   1.085151   1.770498   1.770498
     7  H    1.104326   2.025895   2.230624   2.565586   2.565586
                    6          7
     6  H    0.000000
     7  H    3.116545   0.000000
 Stoichiometry    C2H4O
 Framework group  CS[SG(C2H2O),X(H2)]
 Deg. of freedom    10
 Full point group                 CS      NOp   2
 Largest Abelian subgroup         CS      NOp   2
 Largest concise Abelian subgroup CS      NOp   2
                         Standard orientation:                         
 ---------------------------------------------------------------------
 Center     Atomic      Atomic             Coordinates (Angstroms)
 Number     Number       Type             X           Y           Z
 ---------------------------------------------------------------------
      1          6           0        0.000000    0.475952    0.000000
      2          8           0        1.214691    0.398579    0.000000
      3          6           0       -0.943980   -0.736439    0.000000
      4          1           0       -1.581362   -0.708779    0.879941
      5          1           0       -1.581362   -0.708779   -0.879941
      6          1           0       -0.375516   -1.660777    0.000000
      7          1           0       -0.515405    1.452626    0.000000
 ---------------------------------------------------------------------
 Rotational constants (GHZ):     56.3340666      9.8793257      8.8655358
 Standard basis: STO-3G (5D, 7F)
 There are    15 symmetry adapted cartesian basis functions of A'  symmetry.
 There are     4 symmetry adapted cartesian basis functions of A"  symmetry.
 There are    15 symmetry adapted basis functions of A'  symmetry.
 There are     4 symmetry adapted basis functions of A"  symmetry.
    19 basis functions,    57 primitive gaussians,    19 cartesian basis functions
    12 alpha electrons       12 beta electrons
       nuclear repulsion energy        69.0476032901 Hartrees.
 NAtoms=    7 NActive=    7 NUniq=    6 SFac= 1.36D+00 NAtFMM=   60 NAOKFM=F Big=F
 Integral buffers will be    131072 words long.
 Raffenetti 1 integral format.
 Two-electron integral symmetry is turned on.
 One-electron integrals computed using PRISM.
 NBasis=    19 RedAO= T EigKep=  2.46D-01  NBF=    15     4
 NBsUse=    19 1.00D-06 EigRej= -1.00D+00 NBFU=    15     4
 Initial guess from the checkpoint file:  "acetaldehyde.chk"
 B after Tr=     0.000000    0.000000    0.000000
         Rot=    1.000000    0.000000    0.000000    0.000000 Ang=   0.00 deg.
 Initial guess orbital symmetries:
       Occupied  (A') (A') (A') (A') (A') (A') (A') (A") (A') (A')
                 (A") (A')
       Virtual   (A") (A') (A') (A") (A') (A') (A')
 Keep R1 ints in memory in symmetry-blocked form, NReq=847207.
 Requested convergence on RMS density matrix=1.00D-08 within 128 cycles.
 Requested convergence on MAX density matrix=1.00D-06.
 Requested convergence on             energy=1.00D-06.
 No special actions if energy rises.
 SCF Done:  E(RHF) =  -150.945992993     A.U. after    1 cycles
            NFock=  1  Conv=0.15D-08     -V/T= 2.0088
 Range of M.O.s used for correlation:     1    19
 NBasis=    19 NAE=    12 NBE=    12 NFC=     0 NFV=     0
 NROrb=     19 NOA=    12 NOB=    12 NVA=     7 NVB=     7
          Differentiating once with respect to electric field.
                with respect to dipole field.
          Electric field/nuclear overlap derivatives assumed to be zero.
 Keep R1 ints in memory in symmetry-blocked form, NReq=830611.
          There are     3 degrees of freedom in the 1st order CPHF.  IDoFFX=0 NUNeed=     3.
      3 vectors produced by pass  0 Test12= 2.80D-15 3.33D-08 XBig12= 5.03D+00 1.79D+00.
 AX will form     3 AO Fock derivatives at one time.
      3 vectors produced by pass  1 Test12= 2.80D-15 3.33D-08 XBig12= 4.87D-01 2.76D-01.
      3 vectors produced by pass  2 Test12= 2.80D-15 3.33D-08 XBig12= 2.89D-02 7.62D-02.
      3 vectors produced by pass  3 Test12= 2.80D-15 3.33D-08 XBig12= 7.05D-04 9.15D-03.
      3 vectors produced by pass  4 Test12= 2.80D-15 3.33D-08 XBig12= 1.45D-06 4.11D-04.
      3 vectors produced by pass  5 Test12= 2.80D-15 3.33D-08 XBig12= 9.25D-09 3.34D-05.
      3 vectors produced by pass  6 Test12= 2.80D-15 3.33D-08 XBig12= 4.45D-11 3.70D-06.
      3 vectors produced by pass  7 Test12= 2.80D-15 3.33D-08 XBig12= 2.53D-13 2.12D-07.
 InvSVY:  IOpt=1 It=  1 EMax= 4.44D-16
 Solved reduced A of dimension    24 with     3 vectors.
 End of Minotr F.D. properties file   721 does not exist.
 End of Minotr F.D. properties file   722 does not exist.
 End of Minotr F.D. properties file   788 does not exist.
 Symmetrizing basis deriv contribution to polar:
 IMax=3 JMax=2 DiffMx= 0.00D+00
 G2DrvN: will do     8 centers at a time, making    1 passes.
 PxScal for G2LodP:  IOpCl= 0 ISclPx=1 IMOff=     1 NMtTot=     4 NTT=     190 ScalPx= 1.67D+00
 Calling FoFCou, ICntrl=  3107 FMM=F I1Cent=   0 AccDes= 0.00D+00.
 End of G2Drv F.D. properties file   721 does not exist.
 End of G2Drv F.D. properties file   722 does not exist.
 End of G2Drv F.D. properties file   788 does not exist.
          IDoAtm=1111111
          Differentiating once with respect to electric field.
                with respect to dipole field.
          Differentiating once with respect to nuclear coordinates.
 Keep R1 ints in memory in symmetry-blocked form, NReq=830775.
          There are    21 degrees of freedom in the 1st order CPHF.  IDoFFX=4 NUNeed=    21.
 Will reuse    3 saved solutions.
     18 vectors produced by pass  0 Test12= 4.00D-16 4.76D-09 XBig12= 4.91D-02 1.40D-01.
 AX will form    18 AO Fock derivatives at one time.
     18 vectors produced by pass  1 Test12= 4.00D-16 4.76D-09 XBig12= 2.69D-03 2.38D-02.
     18 vectors produced by pass  2 Test12= 4.00D-16 4.76D-09 XBig12= 8.48D-06 1.24D-03.
     18 vectors produced by pass  3 Test12= 4.00D-16 4.76D-09 XBig12= 9.70D-09 4.39D-05.
     12 vectors produced by pass  4 Test12= 4.00D-16 4.76D-09 XBig12= 1.56D-11 1.54D-06.
 InvSVY:  IOpt=1 It=  1 EMax= 2.78D-17
 Solved reduced A of dimension    84 with    21 vectors.
 Isotropic polarizability for W=    0.000000       11.87 Bohr**3.
 End of Minotr F.D. properties file   721 does not exist.
 End of Minotr F.D. properties file   722 does not exist.
 End of Minotr F.D. properties file   788 does not exist.

 **********************************************************************

            Population analysis using the SCF density.

 **********************************************************************

 Orbital symmetries:
       Occupied  (A') (A') (A') (A') (A') (A') (A') (A") (A') (A')
                 (A") (A')
       Virtual   (A") (A') (A') (A") (A') (A') (A')
 The electronic state is 1-A'.
 Alpha  occ. eigenvalues --  -20.29083 -11.12248 -11.05439  -1.32841  -0.95920
 Alpha  occ. eigenvalues --   -0.74641  -0.60691  -0.56017  -0.54307  -0.50181
 Alpha  occ. eigenvalues --   -0.41561  -0.33662
 Alpha virt. eigenvalues --    0.29118   0.61881   0.66159   0.70959   0.73014
 Alpha virt. eigenvalues --    0.75708   0.97027
          Condensed to atoms (all electrons):
               1          2          3          4          5          6
     1  C    4.743812   0.444358   0.354897  -0.019356  -0.019356  -0.019628
     2  O    0.444358   7.812843  -0.023263   0.000270   0.000270  -0.000817
     3  C    0.354897  -0.023263   4.766038   0.381236   0.381236   0.383161
     4  H   -0.019356   0.000270   0.381236   0.605778  -0.020493  -0.020085
     5  H   -0.019356   0.000270   0.381236  -0.020493   0.605778  -0.020085
     6  H   -0.019628  -0.000817   0.383161  -0.020085  -0.020085   0.599108
     7  H    0.369175  -0.024349  -0.036107  -0.000653  -0.000653   0.001514
               7
     1  C    0.369175
     2  O   -0.024349
     3  C   -0.036107
     4  H   -0.000653
     5  H   -0.000653
     6  H    0.001514
     7  H    0.644095
 Mulliken charges:
               1
     1  C    0.146097
     2  O   -0.209312
     3  C   -0.207198
     4  H    0.073302
     5  H    0.073302
     6  H    0.076831
     7  H    0.046977
 Sum of Mulliken charges =   0.00000
 Mulliken charges with hydrogens summed into heavy atoms:
               1
     1  C    0.193074
     2  O   -0.209312
     3  C    0.016239
 APT charges:
               1
     1  C    0.415092
     2  O   -0.351566
     3  C   -0.106345
     4  H    0.025129
     5  H    0.025129
     6  H    0.017755
     7  H   -0.025192
 Sum of APT charges =   0.00000
 APT charges with hydrogens summed into heavy atoms:
               1
     1  C    0.389900
     2  O   -0.351566
     3  C   -0.038334
 Electronic spatial extent (au):  <R**2>=            166.9553
 Charge=              0.0000 electrons
 Dipole moment (field-independent basis, Debye):
    X=             -1.7775    Y=             -0.1004    Z=              0.0000  Tot=              1.7803
 Quadrupole moment (field-independent basis, Debye-Ang):
   XX=            -19.1316   YY=            -16.7199   ZZ=            -16.4458
   XY=             -0.6726   XZ=              0.0000   YZ=              0.0000
 Traceless Quadrupole moment (field-independent basis, Debye-Ang):
   XX=             -1.6992   YY=              0.7125   ZZ=              0.9867
   XY=             -0.6726   XZ=              0.0000   YZ=              0.0000
 Octapole moment (field-independent basis, Debye-Ang**2):
  XXX=              2.6320  YYY=              2.0245  ZZZ=              0.0000  XYY=              1.8454
  XXY=             -0.2878  XXZ=              0.0000  XZZ=              1.9615  YZZ=              0.7787
  YYZ=              0.0000  XYZ=              0.0000
 Hexadecapole moment (field-independent basis, Debye-Ang**3):
 XXXX=           -106.1610 YYYY=            -63.6513 ZZZZ=            -18.4742 XXXY=            -22.5569
 XXXZ=              0.0000 YYYX=            -23.2370 YYYZ=              0.0000 ZZZX=              0.0000
 ZZZY=              0.0000 XXYY=            -29.0715 XXZZ=            -18.0806 YYZZ=            -14.4518
 XXYZ=              0.0000 YYXZ=              0.0000 ZZXY=             -6.4751
 N-N= 6.904760329014D+01 E-N=-4.926783168526D+02  KE= 1.496229323657D+02
 Symmetry A'   KE= 1.440627311892D+02
 Symmetry A"   KE= 5.560201176470D+00
  Exact polarizability:  16.633   0.271  11.264   0.000   0.000   7.701
 Approx polarizability:  17.872  -0.671   8.565   0.000   0.000   6.185
 Calling FoFJK, ICntrl=    100127 FMM=F ISym2X=1 I1Cent= 0 IOpClX= 0 NMat=1 NMatS=1 NMatT=0.
 Full mass-weighted force constant matrix:
 Low frequencies ---   -5.2735   -0.0003    0.0005    0.0008    1.0731    7.4615
 Low frequencies ---  162.9179  545.3591  896.4187
 Diagonal vibrational polarizability:
        0.3419746       1.4702074       0.9046711
 Diagonal vibrational hyperpolarizability:
       -5.1953251       0.5261554       0.0000000
 Harmonic frequencies (cm**-1), IR intensities (KM/Mole), Raman scattering
 activities (A**4/AMU), depolarization ratios for plane and unpolarized
 incident light, reduced masses (AMU), force constants (mDyne/A),
 and normal coordinates:
                      1                      2                      3
                     A"                     A'                     A"
 Frequencies --    162.9178               545.3591               896.4187
 Red. masses --      1.2331                 2.8730                 1.1917
 Frc consts  --      0.0193                 0.5034                 0.5642
 IR Inten    --      0.7998                 9.8541                 1.5578
 Raman Activ --      0.4962                 1.1334                 3.3816
 Depolar (P) --      0.7500                 0.6011                 0.7500
 Depolar (U) --      0.8571                 0.7509                 0.8571
  Atom  AN      X      Y      Z        X      Y      Z        X      Y      Z
     1   6     0.00   0.00  -0.11     0.10  -0.21   0.00     0.00   0.00   0.11
     2   8     0.00   0.00   0.08     0.13   0.21   0.00     0.00   0.00  -0.04
     3   6     0.00   0.00   0.01    -0.18  -0.06   0.00     0.00   0.00   0.05
     4   1     0.41  -0.22   0.32    -0.18   0.27  -0.01    -0.26  -0.34  -0.14
     5   1    -0.41   0.22   0.32    -0.18   0.27   0.01     0.26   0.34  -0.14
     6   1     0.00   0.00  -0.47    -0.65  -0.35   0.00     0.00   0.00  -0.20
     7   1     0.00   0.00  -0.34    -0.08  -0.30   0.00     0.00   0.00  -0.73
                      4                      5                      6
                     A'                     A"                     A'
 Frequencies --   1062.4189              1284.9514              1293.9967
 Red. masses --      2.1256                 1.5840                 1.8818
 Frc consts  --      1.4136                 1.5409                 1.8565
 IR Inten    --      1.4973                 0.5148                24.3848
 Raman Activ --      5.7264                 0.0008                 5.6211
 Depolar (P) --      0.3032                 0.7500                 0.5646
 Depolar (U) --      0.4653                 0.8571                 0.7217
  Atom  AN      X      Y      Z        X      Y      Z        X      Y      Z
     1   6     0.06   0.15   0.00     0.00   0.00   0.18     0.01   0.21   0.00
     2   8     0.11   0.02   0.00     0.00   0.00  -0.03    -0.02  -0.04   0.00
     3   6    -0.21  -0.12   0.00     0.00   0.00  -0.14     0.07  -0.16   0.00
     4   1    -0.21  -0.54   0.02     0.39   0.38   0.13    -0.03   0.27  -0.08
     5   1    -0.21  -0.54  -0.02    -0.39  -0.38   0.13    -0.03   0.27   0.08
     6   1     0.19   0.11   0.00     0.00   0.00   0.25    -0.61  -0.59   0.00
     7   1     0.32   0.30   0.00     0.00   0.00  -0.51    -0.06   0.19   0.00
                      7                      8                      9
                     A'                     A'                     A"
 Frequencies --   1619.5946              1703.8721              1806.4182
 Red. masses --      1.1854                 1.2957                 1.0492
 Frc consts  --      1.8321                 2.2164                 2.0173
 IR Inten    --     18.5906                 3.3477                 4.0288
 Raman Activ --      9.6927                 4.9540                15.0184
 Depolar (P) --      0.7381                 0.7499                 0.7500
 Depolar (U) --      0.8493                 0.8571                 0.8571
  Atom  AN      X      Y      Z        X      Y      Z        X      Y      Z
     1   6     0.00  -0.07   0.00     0.00  -0.03   0.00     0.00   0.00   0.01
     2   8    -0.07   0.04   0.00    -0.02   0.01   0.00     0.00   0.00   0.00
     3   6     0.02  -0.04   0.00     0.10   0.12   0.00     0.00   0.00   0.06
     4   1     0.06   0.14   0.02    -0.20  -0.48  -0.20    -0.13   0.46  -0.05
     5   1     0.06   0.14  -0.02    -0.20  -0.48   0.20     0.13  -0.46  -0.05
     6   1     0.02  -0.04   0.00    -0.52  -0.25   0.00     0.00   0.00  -0.73
     7   1     0.88   0.40   0.00     0.14   0.03   0.00     0.00   0.00  -0.03
                     10                     11                     12
                     A'                     A'                     A'
 Frequencies --   1808.1389              2121.6049              3541.2111
 Red. masses --      1.0538                 8.2596                 1.0910
 Frc consts  --      2.0300                21.9048                 8.0611
 IR Inten    --      4.7065                30.0689                23.6999
 Raman Activ --     19.2270                 6.2810                36.7894
 Depolar (P) --      0.7402                 0.1490                 0.4259
 Depolar (U) --      0.8507                 0.2594                 0.5974
  Atom  AN      X      Y      Z        X      Y      Z        X      Y      Z
     1   6     0.01   0.01   0.00     0.65   0.04   0.00    -0.04   0.08   0.00
     2   8    -0.01   0.00   0.00    -0.42   0.02   0.00     0.00   0.00   0.00
     3   6    -0.05   0.03   0.00    -0.06  -0.02   0.00     0.00   0.00   0.00
     4   1     0.50  -0.18   0.40    -0.14  -0.08  -0.05    -0.03   0.00   0.04
     5   1     0.50  -0.18  -0.40    -0.14  -0.08   0.05    -0.03   0.00  -0.04
     6   1    -0.31  -0.13   0.00     0.20   0.13   0.00     0.01  -0.02   0.00
     7   1    -0.01   0.00   0.00    -0.24  -0.48   0.00     0.47  -0.88   0.00
                     13                     14                     15
                     A'                     A"                     A'
 Frequencies --   3564.8053              3739.5048              3763.1489
 Red. masses --      1.0389                 1.1069                 1.1101
 Frc consts  --      7.7786                 9.1199                 9.2625
 IR Inten    --      0.7282                 0.0025                 0.1421
 Raman Activ --     46.0108                33.1865                26.0496
 Depolar (P) --      0.0160                 0.7500                 0.7480
 Depolar (U) --      0.0315                 0.8571                 0.8558
  Atom  AN      X      Y      Z        X      Y      Z        X      Y      Z
     1   6     0.00   0.01   0.00     0.00   0.00   0.00     0.00   0.00   0.00
     2   8     0.00   0.00   0.00     0.00   0.00   0.00     0.00   0.00   0.00
     3   6    -0.04  -0.04   0.00     0.00   0.00   0.09     0.07  -0.06   0.00
     4   1     0.34  -0.02  -0.48     0.42  -0.02  -0.57    -0.22   0.01   0.31
     5   1     0.34  -0.02   0.48    -0.42   0.02  -0.57    -0.22   0.01  -0.31
     6   1    -0.28   0.46   0.00     0.00   0.00   0.00    -0.44   0.71   0.00
     7   1     0.03  -0.06   0.00     0.00   0.00   0.00    -0.01   0.02   0.00

 -------------------
 - Thermochemistry -
 -------------------
 Temperature   298.150 Kelvin.  Pressure   1.00000 Atm.
 Atom     1 has atomic number  6 and mass  12.00000
 Atom     2 has atomic number  8 and mass  15.99491
 Atom     3 has atomic number  6 and mass  12.00000
 Atom     4 has atomic number  1 and mass   1.00783
 Atom     5 has atomic number  1 and mass   1.00783
 Atom     6 has atomic number  1 and mass   1.00783
 Atom     7 has atomic number  1 and mass   1.00783
 Molecular mass:    44.02621 amu.
 Principal axes and moments of inertia in atomic units:
                           1         2         3
     Eigenvalues --    32.03641 182.67858 203.56820
           X            0.87051  -0.49214   0.00000
           Y            0.49214   0.87051   0.00000
           Z            0.00000   0.00000   1.00000
 This molecule is an asymmetric top.
 Rotational symmetry number  1.
 Rotational temperatures (Kelvin)      2.70361     0.47413     0.42548
 Rotational constants (GHZ):          56.33407     9.87933     8.86554
 Zero-point vibrational energy     172946.3 (Joules/Mol)
                                   41.33515 (Kcal/Mol)
 Warning -- explicit consideration of   2 degrees of freedom as
           vibrations may cause significant error
 Vibrational temperatures:    234.40   784.65  1289.74  1528.58  1848.76
          (Kelvin)           1861.77  2330.23  2451.49  2599.03  2601.51
                             3052.51  5095.01  5128.95  5380.31  5414.33
 
 Zero-point correction=                           0.065872 (Hartree/Particle)
 Thermal correction to Energy=                    0.069633
 Thermal correction to Enthalpy=                  0.070577
 Thermal correction to Gibbs Free Energy=         0.040959
 Sum of electronic and zero-point Energies=           -150.880121
 Sum of electronic and thermal Energies=              -150.876360
 Sum of electronic and thermal Enthalpies=            -150.875416
 Sum of electronic and thermal Free Energies=         -150.905034
 
                     E (Thermal)             CV                S
                      KCal/Mol        Cal/Mol-Kelvin    Cal/Mol-Kelvin
 Total                   43.696             10.267             62.337
 Electronic               0.000              0.000              0.000
 Translational            0.889              2.981             37.273
 Rotational               0.889              2.981             21.704
 Vibrational             41.918              4.305              3.360
 Vibration     1          0.623              1.888              2.516
 Vibration     2          0.901              1.150              0.554
                       Q            Log10(Q)             Ln(Q)
 Total Bot       0.144571D-18        -18.839918        -43.380513
 Total V=0       0.287690D+12         11.458925         26.385150
 Vib (Bot)       0.101904D-29        -29.991807        -69.058687
 Vib (Bot)    1  0.123978D+01          0.093346          0.214936
 Vib (Bot)    2  0.289040D+00         -0.539041         -1.241189
 Vib (V=0)       0.202785D+01          0.307036          0.706975
 Vib (V=0)    1  0.183681D+01          0.264064          0.608031
 Vib (V=0)    2  0.107753D+01          0.032431          0.074674
 Electronic      0.100000D+01          0.000000          0.000000
 Translational   0.114821D+08          7.060022         16.256302
 Rotational      0.123557D+05          4.091867          9.421872
 ***** Axes restored to original set *****
 -------------------------------------------------------------------
 Center     Atomic                   Forces (Hartrees/Bohr)
 Number     Number              X              Y              Z
 -------------------------------------------------------------------
      1        6           0.000101814    0.000058516    0.000000000
      2        8          -0.000063331   -0.000039225    0.000000000
      3        6          -0.000032787    0.000005304    0.000000000
      4        1          -0.000001854    0.000001631    0.000000961
      5        1          -0.000001854    0.000001631   -0.000000961
      6        1           0.000000503    0.000002759    0.000000000
      7        1          -0.000002490   -0.000030616    0.000000000
 -------------------------------------------------------------------
 Cartesian Forces:  Max     0.000101814 RMS     0.000031929
 FormGI is forming the generalized inverse of G from B-inverse, IUseBI=4.

 GradGradGradGradGradGradGradGradGradGradGradGradGradGradGradGradGradGrad
 Berny optimization.
 Internal  Forces:  Max     0.000074369 RMS     0.000019492
 Search for a local minimum.
 Step number   1 out of a maximum of    2
 All quantities printed in internal units (Hartrees-Bohrs-Radians)
 Second derivative matrix not updated -- analytic derivatives used.
 ITU=  0
     Eigenvalues ---    0.00134   0.05374   0.08284   0.08336   0.15043
     Eigenvalues ---    0.18084   0.18986   0.20658   0.26613   0.39474
     Eigenvalues ---    0.44417   0.47082   0.48329   0.48883   1.13730
 Angle between quadratic step and forces=  34.03 degrees.
 Linear search not attempted -- first point.
 Iteration  1 RMS(Cart)=  0.00003062 RMS(Int)=  0.00000000
 Iteration  2 RMS(Cart)=  0.00000000 RMS(Int)=  0.00000000
 ClnCor:  largest displacement from symmetrization is 3.54D-13 for atom     5.
 Variable       Old X    -DE/DX   Delta X   Delta X   Delta X     New X
                                 (Linear)    (Quad)   (Total)
    R1        2.30008   0.00007   0.00000   0.00007   0.00007   2.30016
    R2        2.90366  -0.00004   0.00000  -0.00011  -0.00011   2.90355
    R3        2.08687  -0.00003   0.00000  -0.00007  -0.00007   2.08680
    R4        2.05391   0.00000   0.00000   0.00000   0.00000   2.05391
    R5        2.05391   0.00000   0.00000   0.00000   0.00000   2.05391
    R6        2.05064   0.00000   0.00000  -0.00001  -0.00001   2.05063
    A1        2.16875   0.00000   0.00000   0.00001   0.00001   2.16876
    A2        2.11998  -0.00001   0.00000  -0.00005  -0.00005   2.11993
    A3        1.99446   0.00000   0.00000   0.00003   0.00003   1.99449
    A4        1.91792   0.00000   0.00000  -0.00001  -0.00001   1.91791
    A5        1.91792   0.00000   0.00000  -0.00001  -0.00001   1.91791
    A6        1.92866   0.00000   0.00000   0.00003   0.00003   1.92868
    A7        1.88694   0.00000   0.00000  -0.00001  -0.00001   1.88692
    A8        1.90592   0.00000   0.00000   0.00000   0.00000   1.90592
    A9        1.90592   0.00000   0.00000   0.00000   0.00000   1.90592
    D1        2.10446   0.00000   0.00000   0.00001   0.00001   2.10447
    D2       -2.10446   0.00000   0.00000  -0.00001  -0.00001  -2.10447
    D3        0.00000   0.00000   0.00000   0.00000   0.00000   0.00000
    D4       -1.03713   0.00000   0.00000   0.00001   0.00001  -1.03712
    D5        1.03713   0.00000   0.00000  -0.00001  -0.00001   1.03712
    D6        3.14159   0.00000   0.00000   0.00000   0.00000   3.14159
         Item               Value     Threshold  Converged?
 Maximum Force            0.000074     0.000450     YES
 RMS     Force            0.000019     0.000300     YES
 Maximum Displacement     0.000082     0.001800     YES
 RMS     Displacement     0.000031     0.001200     YES
 Predicted change in Energy=-6.233828D-09
 Optimization completed.
    -- Stationary point found.
                           ----------------------------
                           !   Optimized Parameters   !
                           ! (Angstroms and Degrees)  !
 --------------------------                            --------------------------
 ! Name  Definition              Value          Derivative Info.                !
 --------------------------------------------------------------------------------
 ! R1    R(1,2)                  1.2172         -DE/DX =    0.0001              !
 ! R2    R(1,3)                  1.5366         -DE/DX =    0.0                 !
 ! R3    R(1,7)                  1.1043         -DE/DX =    0.0                 !
 ! R4    R(3,4)                  1.0869         -DE/DX =    0.0                 !
 ! R5    R(3,5)                  1.0869         -DE/DX =    0.0                 !
 ! R6    R(3,6)                  1.0852         -DE/DX =    0.0                 !
 ! A1    A(2,1,3)              124.26           -DE/DX =    0.0                 !
 ! A2    A(2,1,7)              121.466          -DE/DX =    0.0                 !
 ! A3    A(3,1,7)              114.274          -DE/DX =    0.0                 !
 ! A4    A(1,3,4)              109.8886         -DE/DX =    0.0                 !
 ! A5    A(1,3,5)              109.8886         -DE/DX =    0.0                 !
 ! A6    A(1,3,6)              110.504          -DE/DX =    0.0                 !
 ! A7    A(4,3,5)              108.1136         -DE/DX =    0.0                 !
 ! A8    A(4,3,6)              109.201          -DE/DX =    0.0                 !
 ! A9    A(5,3,6)              109.201          -DE/DX =    0.0                 !
 ! D1    D(2,1,3,4)            120.5765         -DE/DX =    0.0                 !
 ! D2    D(2,1,3,5)           -120.5765         -DE/DX =    0.0                 !
 ! D3    D(2,1,3,6)              0.0            -DE/DX =    0.0                 !
 ! D4    D(7,1,3,4)            -59.4235         -DE/DX =    0.0                 !
 ! D5    D(7,1,3,5)             59.4235         -DE/DX =    0.0                 !
 ! D6    D(7,1,3,6)            180.0            -DE/DX =    0.0                 !
 --------------------------------------------------------------------------------
 GradGradGradGradGradGradGradGradGradGradGradGradGradGradGradGradGradGrad

 1\1\GINC-LEGION\Freq\RHF\STO-3G\C2H4O1\HIMANSHU\17-Feb-2025\0\\#N Geom
 =AllCheck Guess=TCheck SCRF=Check GenChk RHF/STO-3G Freq\\Title Card R
 equired\\0,1\C,-1.1665719698,0.899113774,0.\O,-2.1624107965,0.19928175
 31,0.\C,0.2713336711,0.3574330453,0.\H,0.8006301783,0.7136162169,-0.87
 99407285\H,0.8006301783,0.7136162169,0.8799407285\H,0.268716879,-0.727
 7145777,0.\H,-1.2365268004,2.0012216514,0.\\Version=AM64L-G09RevD.01\S
 tate=1-A'\HF=-150.945993\RMSD=1.494e-09\RMSF=3.193e-05\ZeroPoint=0.065
 8718\Thermal=0.0696332\Dipole=0.6171705,0.3312044,0.\DipoleDeriv=0.629
 7701,-0.1615277,0.,-0.2475371,0.5194471,0.,0.,0.,0.0960577,-0.4533123,
 0.0507351,0.,0.0456375,-0.3946787,0.,0.,0.,-0.2067068,-0.1262866,0.013
 714,0.,0.0458842,-0.1550318,0.,0.,0.,-0.0377175,0.0138616,-0.0072839,0
 .0148364,0.0256071,0.043098,0.0265454,0.0099535,0.0211686,0.0184261,0.
 0138616,-0.0072839,-0.0148364,0.0256071,0.043098,-0.0265454,-0.0099535
 ,-0.0211686,0.0184261,-0.0010557,0.0250007,0.,0.0055322,-0.0016024,0.,
 0.,0.,0.0559217,-0.0768386,0.0866456,0.,0.099269,-0.0543302,0.,0.,0.,0
 .0555929\Polar=15.4123861,2.2666197,12.484395,0.,0.,7.7010352\PolarDer
 iv=3.0299401,3.0153572,0.5146,0.,0.,0.5009498,2.4699416,1.7689606,-1.5
 157282,0.,0.,0.7757359,0.,0.,0.,1.8747502,1.4628926,0.,-8.8547263,-3.3
 468288,-0.339217,0.,0.,-0.6532124,-1.8262507,-4.1001819,-3.2603175,0.,
 0.,-0.5777743,0.,0.,0.,-2.8624061,-1.6598096,0.,-0.2139895,-2.1420307,
 0.1304368,0.,0.,-1.1939091,-1.9762137,-0.0494331,2.1769238,0.,0.,-1.11
 46917,0.,0.,0.,-3.6647558,-0.712286,0.,3.1749801,1.094196,0.0364614,-1
 .9206953,-0.0598379,0.5066809,0.7168627,1.3224155,0.8752076,-0.1563776
 ,-1.7103799,0.347688,-0.7708887,-0.0630933,-0.1387828,2.2573335,0.9005
 419,-3.7930801,3.1749801,1.094196,0.0364614,1.9206953,0.0598379,0.5066
 809,0.7168627,1.3224155,0.8752076,0.1563776,1.7103799,0.347688,0.77088
 87,0.0630933,0.1387828,2.2573335,0.9005419,3.7930801,0.2570639,-2.0245
 48,0.2465674,0.,0.,0.3113725,-0.0751198,0.8315241,-5.5135215,0.,0.,0.0
 717153,0.,0.,0.,0.6698698,-1.9461561,0.,-0.5682484,2.3096584,-0.625310
 1,0.,0.,0.0214375,-0.0260828,-1.0957009,6.3622282,0.,0.,0.1496389,0.,0
 .,0.,-0.5321252,1.0542754,0.\HyperPolar=-6.2745743,4.1821666,1.3245598
 ,0.9100384,0.,0.,0.,5.0341239,3.2066258,0.\PG=CS [SG(C2H2O1),X(H2)]\NI
 mag=0\\1.11970732,0.31817469,1.00181565,0.,0.,0.23162927,-0.73418845,-
 0.44127386,0.,0.78715470,-0.43810965,-0.43358133,0.,0.48870721,0.43755
 940,0.,0.,-0.06740572,0.,0.,0.02310550,-0.25965645,0.07546964,0.,-0.05
 639066,-0.00058004,0.,0.71172444,0.06644999,-0.16786944,0.,-0.03163728
 ,0.02505784,0.,0.05653160,0.85674890,0.,0.,-0.10885005,0.,0.,0.0250506
 8,0.,0.,0.79659849,-0.01961486,-0.01869922,0.03319168,-0.00282271,0.00
 434707,-0.00292752,-0.16086494,-0.06313209,0.15960041,0.16506371,0.007
 36952,0.00785443,-0.01620147,0.00195254,-0.00060076,0.00165810,-0.0604
 6289,-0.12010095,0.09979210,0.06503525,0.11165019,-0.00250968,-0.00131
 893,0.00673719,-0.00288493,-0.00053321,-0.00127179,0.14902619,0.102714
 32,-0.32672636,-0.16125733,-0.10977328,0.33720498,-0.01961486,-0.01869
 922,-0.03319168,-0.00282271,0.00434707,0.00292752,-0.16086494,-0.06313
 209,-0.15960041,0.01480062,0.00922861,0.02188714,0.16506371,0.00736952
 ,0.00785443,0.01620147,0.00195254,-0.00060076,-0.00165810,-0.06046289,
 -0.12010095,-0.09979210,0.00922861,0.00613532,0.01520952,0.06503525,0.
 11165019,0.00250968,0.00131893,0.00673719,0.00288493,0.00053321,-0.001
 27179,-0.14902619,-0.10271432,-0.32672636,-0.02188714,-0.01520952,-0.0
 2112282,0.16125733,0.10977328,0.33720498,0.00381940,0.04808014,0.,0.00
 663002,-0.00371036,0.,-0.07519141,-0.00362294,0.,0.00139709,-0.0220593
 2,-0.00394000,0.00139709,-0.02205932,0.00394000,0.06940096,-0.00149719
 ,-0.00869139,0.,-0.00285408,0.00150479,0.,-0.00491582,-0.46786770,0.,0
 .00329927,-0.00507097,-0.00626901,0.00329927,-0.00507097,0.00626901,0.
 00199039,0.48436443,0.,0.,-0.00026542,0.,0.,-0.00086185,0.,0.,-0.07973
 822,-0.00319926,0.03833204,0.00548563,0.00319926,-0.03833204,0.0054856
 3,0.,0.,0.06825112,-0.09045210,0.03694783,0.,0.00243982,-0.05500129,0.
 ,0.00124396,0.03854280,0.,0.00204109,-0.00106373,-0.00032139,0.0020410
 9,-0.00106373,0.00032139,-0.00745316,0.00067816,0.,0.09013930,0.040243
 12,-0.40738236,0.,-0.01684707,-0.02933919,0.,-0.00557960,-0.00586769,0
 .,-0.00007890,0.00013275,-0.00002940,-0.00007890,0.00013275,0.00002940
 ,0.00138140,0.00083181,0.,-0.01904005,0.44149194,0.,0.,-0.06858246,0.,
 0.,0.02265497,0.,0.,0.02039181,-0.00352084,0.00140202,-0.00030683,0.00
 352084,-0.00140202,-0.00030683,0.,0.,0.00164310,0.,0.,0.02450625\\-0.0
 0010181,-0.00005852,0.,0.00006333,0.00003922,0.,0.00003279,-0.00000530
 ,0.,0.00000185,-0.00000163,-0.00000096,0.00000185,-0.00000163,0.000000
 96,-0.00000050,-0.00000276,0.,0.00000249,0.00003062,0.\\\@


 PERICLES, SOPHOCLES,
 PELOPONESIAN WAR,
 FRENCH VERBS, LATIN VERBS
 H2SO4.
 Job cpu time:       0 days  0 hours  0 minutes  1.5 seconds.
 File lengths (MBytes):  RWF=      5 Int=      0 D2E=      0 Chk=      1 Scr=      1
 Normal termination of Gaussian 09 at Mon Feb 17 23:54:32 2025.
